 Entering Gaussian System, Link 0=g09
 Initial command:
 /home/apps/iiser/g09/g09/l1.exe "/home/aloke/aloke/prakash/Gau-43294.inp" -scrdir="/home/aloke/aloke/prakash/"
 Entering Link 1 = /home/apps/iiser/g09/g09/l1.exe PID=     43295.
  
 Copyright (c) 1988,1990,1992,1993,1995,1998,2003,2009,2013,
            Gaussian, Inc.  All Rights Reserved.
  
 This is part of the Gaussian(R) 09 program.  It is based on
 the Gaussian(R) 03 system (copyright 2003, Gaussian, Inc.),
 the Gaussian(R) 98 system (copyright 1998, Gaussian, Inc.),
 the Gaussian(R) 94 system (copyright 1995, Gaussian, Inc.),
 the Gaussian 92(TM) system (copyright 1992, Gaussian, Inc.),
 the Gaussian 90(TM) system (copyright 1990, Gaussian, Inc.),
 the Gaussian 88(TM) system (copyright 1988, Gaussian, Inc.),
 the Gaussian 86(TM) system (copyright 1986, Carnegie Mellon
 University), and the Gaussian 82(TM) system (copyright 1983,
 Carnegie Mellon University). Gaussian is a federally registered
 trademark of Gaussian, Inc.
  
 This software contains proprietary and confidential information,
 including trade secrets, belonging to Gaussian, Inc.
  
 This software is provided under written license and may be
 used, copied, transmitted, or stored only in accord with that
 written license.
  
 The following legend is applicable only to US Government
 contracts under FAR:
  
                    RESTRICTED RIGHTS LEGEND
  
 Use, reproduction and disclosure by the US Government is
 subject to restrictions as set forth in subparagraphs (a)
 and (c) of the Commercial Computer Software - Restricted
 Rights clause in FAR 52.227-19.
  
 Gaussian, Inc.
 340 Quinnipiac St., Bldg. 40, Wallingford CT 06492
  
  
 ---------------------------------------------------------------
 Warning -- This program may not be used in any manner that
 competes with the business of Gaussian, Inc. or will provide
 assistance to any competitor of Gaussian, Inc.  The licensee
 of this program is prohibited from giving any competitor of
 Gaussian, Inc. access to this program.  By using this program,
 the user acknowledges that Gaussian, Inc. is engaged in the
 business of creating and licensing software in the field of
 computational chemistry and represents and warrants to the
 licensee that it is not a competitor of Gaussian, Inc. and that
 it will not use this program in any manner prohibited above.
 ---------------------------------------------------------------
  

 Cite this work as:
 Gaussian 09, Revision D.01,
 M. J. Frisch, G. W. Trucks, H. B. Schlegel, G. E. Scuseria, 
 M. A. Robb, J. R. Cheeseman, G. Scalmani, V. Barone, B. Mennucci, 
 G. A. Petersson, H. Nakatsuji, M. Caricato, X. Li, H. P. Hratchian, 
 A. F. Izmaylov, J. Bloino, G. Zheng, J. L. Sonnenberg, M. Hada, 
 M. Ehara, K. Toyota, R. Fukuda, J. Hasegawa, M. Ishida, T. Nakajima, 
 Y. Honda, O. Kitao, H. Nakai, T. Vreven, J. A. Montgomery, Jr., 
 J. E. Peralta, F. Ogliaro, M. Bearpark, J. J. Heyd, E. Brothers, 
 K. N. Kudin, V. N. Staroverov, T. Keith, R. Kobayashi, J. Normand, 
 K. Raghavachari, A. Rendell, J. C. Burant, S. S. Iyengar, J. Tomasi, 
 M. Cossi, N. Rega, J. M. Millam, M. Klene, J. E. Knox, J. B. Cross, 
 V. Bakken, C. Adamo, J. Jaramillo, R. Gomperts, R. E. Stratmann, 
 O. Yazyev, A. J. Austin, R. Cammi, C. Pomelli, J. W. Ochterski, 
 R. L. Martin, K. Morokuma, V. G. Zakrzewski, G. A. Voth, 
 P. Salvador, J. J. Dannenberg, S. Dapprich, A. D. Daniels, 
 O. Farkas, J. B. Foresman, J. V. Ortiz, J. Cioslowski, 
 and D. J. Fox, Gaussian, Inc., Wallingford CT, 2013.
 
 ******************************************
 Gaussian 09:  AM64L-G09RevD.01 24-Apr-2013
                11-Jul-2021 
 ******************************************
 %LindaWorkers=cn031
 %chk=mod_bp25_n.chk
 %mem=128GB
 %nprocshared=48
 Will use up to   48 processors via shared memory.
 SetLPE:  input flags=" -opt "Tsnet.Node.lindarsharg: ssh" "
 SetLPE:    new flags=" -opt "Tsnet.Node.lindarsharg: ssh"  -nodelist 'cn031'"
 Will use up to    1 processors via Linda.
 ----------------------------------------------------------------------
 # b3lyp/def2tzvp empiricaldispersion=gd3 pop=nbo6read pop=saveNBOs int
 =(grid=ultrafine) scf=(tight,maxcycle=300)
 ----------------------------------------------------------------------
 1/38=1,163=2/1;
 2/12=2,17=6,18=5,40=1/2;
 3/5=44,7=101,11=2,16=1,25=1,30=1,74=-5,75=-5,124=31/1,2,3;
 4//1;
 5/5=2,7=300,32=2,38=5/2;
 6/7=2,8=2,9=2,10=2,28=1,40=2,73=1,113=1,114=1,124=2103/1,12;
 99/5=1,9=1/99;
 ---------------------------------------------
 Energy Optimisation and Frequency calculation
 ---------------------------------------------
 Symbolic Z-matrix:
 Charge =  0 Multiplicity = 1
 C                    -0.27296  -0.82193   0.30488 
 C                    -0.9107   -2.0607    0.3174 
 C                    -2.26599  -2.19238   0.03459 
 C                    -3.00941  -1.06201  -0.27026 
 C                    -2.39858   0.18698  -0.26892 
 C                    -1.04017   0.32611   0.02205 
 H                    -0.32399  -2.94582   0.5357 
 H                    -2.7305   -3.17012   0.04424 
 H                    -4.06455  -1.14453  -0.49949 
 H                    -2.9908    1.06414  -0.49192 
 N                    -0.39944   1.60237   0.02228 
 C                    -0.92645   2.58961  -0.90533 
 H                    -1.88735   3.02655  -0.58979 
 H                    -0.20943   3.40857  -0.99313 
 H                    -1.05942   2.14143  -1.88974 
 C                    -0.20195   2.17003   1.35404 
 H                    -1.14225   2.55455   1.78001 
 H                     0.51338   2.99341   1.3009 
 H                     0.19006   1.41941   2.03662 
 C                     1.22135  -0.75036   0.50601 
 H                     1.57985  -1.69446   0.91923 
 H                     1.50105   0.01493   1.22844 
 C                     1.96036  -0.46474  -0.80265 
 H                     1.60411   0.47453  -1.24176 
 H                     1.75514  -1.23583  -1.55532 
 C                     3.45107  -0.35185  -0.65799 
 H                     3.99855  -0.18796  -1.61243 
 O                     4.05286  -0.41849   0.3837 
 
                          Input orientation:                          
 ---------------------------------------------------------------------
 Center     Atomic      Atomic             Coordinates (Angstroms)
 Number     Number       Type             X           Y           Z
 ---------------------------------------------------------------------
      1          6           0       -0.272962   -0.821932    0.304875
      2          6           0       -0.910699   -2.060703    0.317395
      3          6           0       -2.265994   -2.192382    0.034593
      4          6           0       -3.009414   -1.062015   -0.270256
      5          6           0       -2.398584    0.186978   -0.268920
      6          6           0       -1.040170    0.326109    0.022048
      7          1           0       -0.323987   -2.945817    0.535701
      8          1           0       -2.730504   -3.170116    0.044240
      9          1           0       -4.064546   -1.144532   -0.499486
     10          1           0       -2.990802    1.064137   -0.491922
     11          7           0       -0.399435    1.602365    0.022284
     12          6           0       -0.926453    2.589607   -0.905328
     13          1           0       -1.887352    3.026550   -0.589788
     14          1           0       -0.209428    3.408569   -0.993134
     15          1           0       -1.059416    2.141428   -1.889741
     16          6           0       -0.201949    2.170034    1.354044
     17          1           0       -1.142254    2.554549    1.780012
     18          1           0        0.513379    2.993405    1.300902
     19          1           0        0.190060    1.419413    2.036621
     20          6           0        1.221347   -0.750358    0.506006
     21          1           0        1.579847   -1.694457    0.919233
     22          1           0        1.501052    0.014928    1.228440
     23          6           0        1.960363   -0.464736   -0.802652
     24          1           0        1.604113    0.474533   -1.241760
     25          1           0        1.755140   -1.235828   -1.555320
     26          6           0        3.451068   -0.351845   -0.657990
     27          1           0        3.998546   -0.187956   -1.612433
     28          8           0        4.052859   -0.418488    0.383696
 ---------------------------------------------------------------------
                    Distance matrix (angstroms):
                    1          2          3          4          5
     1  C    0.000000
     2  C    1.393348   0.000000
     3  C    2.433796   1.390734   0.000000
     4  C    2.806525   2.397356   1.386844   0.000000
     5  C    2.421861   2.758557   2.402302   1.390359   0.000000
     6  C    1.409467   2.408498   2.801000   2.426984   1.396176
     7  H    2.137001   1.084120   2.142467   3.377839   3.842626
     8  H    3.409019   2.148744   1.082509   2.149602   3.387967
     9  H    3.889367   3.384289   2.148958   1.082894   2.145113
    10  H    3.402763   3.840110   3.377496   2.137757   1.081601
    11  N    2.443986   3.710330   4.228983   3.741188   2.466722
    12  C    3.678347   4.808397   5.054230   4.251633   2.888739
    13  H    4.268195   5.258990   5.269770   4.251763   2.903013
    14  H    4.425608   5.667645   6.054448   5.324340   3.961760
    15  H    3.770458   4.748839   4.892934   4.085006   2.870593
    16  C    3.171381   4.413174   5.003190   4.578903   3.375163
    17  H    3.785805   4.847001   5.180988   4.557348   3.373704
    18  H    4.020845   5.342218   6.018375   5.596878   4.338191
    19  H    2.870011   4.034677   4.804725   4.660021   3.679061
    20  C    1.509482   2.509621   3.803053   4.312662   3.818771
    21  H    2.138139   2.588274   3.977563   4.782905   4.558445
    22  H    2.168048   3.309802   4.526381   4.873418   4.180771
    23  C    2.518322   3.470535   4.641964   5.033773   4.439597
    24  H    2.756141   3.896494   4.870240   4.958773   4.129248
    25  H    2.782954   3.360681   4.428582   4.937872   4.575219
    26  C    3.875112   4.785037   6.045829   6.510953   5.887286
    27  H    4.724804   5.597509   6.780478   7.188666   6.547433
    28  O    4.345309   5.228592   6.572403   7.121621   6.512573
                    6          7          8          9         10
     6  C    0.000000
     7  H    3.388548   0.000000
     8  H    3.883466   2.466408   0.000000
     9  H    3.403180   4.278787   2.485618   0.000000
    10  H    2.147979   4.924190   4.275994   2.455851   0.000000
    11  N    1.428065   4.577690   5.311397   4.609851   2.696160
    12  C    2.448751   5.751561   6.109884   4.894500   2.599904
    13  H    2.895590   6.275349   6.285823   4.705981   2.253496
    14  H    3.349968   6.536718   7.121170   5.986347   3.672004
    15  H    2.636416   5.683633   5.894516   4.664885   2.616239
    16  C    2.424229   5.182327   6.051973   5.416787   3.522542
    17  H    2.840212   5.698412   6.189284   5.236325   3.286357
    18  H    3.341175   6.046575   7.077497   6.428166   4.383558
    19  H    2.601400   4.644592   5.793363   5.577394   4.078926
    20  C    2.550972   2.684954   4.656778   5.395095   4.693661
    21  H    3.428136   2.310321   4.639214   5.845883   5.521959
    22  H    2.830199   3.546359   5.427053   5.941882   4.923133
    23  C    3.210726   3.628389   5.480925   6.070713   5.191150
    24  H    2.934531   4.309957   5.807423   5.941888   4.692881
    25  H    3.569523   3.408695   5.140142   5.915392   5.380020
    26  C    4.592743   4.733353   6.829906   7.558964   6.597748
    27  H    5.322072   5.559188   7.544399   8.195556   7.188482
    28  O    5.159860   5.056410   7.328076   8.197525   7.251072
                   11         12         13         14         15
    11  N    0.000000
    12  C    1.453568   0.000000
    13  H    2.148681   1.101731   0.000000
    14  H    2.080757   1.092032   1.767500   0.000000
    15  H    2.093324   1.089776   1.777300   1.769754   0.000000
    16  C    1.461107   2.409504   2.711584   2.653916   3.355325
    17  H    2.132614   2.694225   2.528618   3.047926   3.693862
    18  H    2.098353   2.665262   3.056030   2.440781   3.657834
    19  H    2.106782   3.357234   3.714371   3.646333   4.183158
    20  C    2.897624   4.214294   5.012964   4.646634   4.393621
    21  H    3.948558   5.288078   6.048679   5.735811   5.437836
    22  H    2.754382   4.132157   4.884373   4.402037   4.560817
    23  C    3.243774   4.203958   5.199933   4.443734   4.134358
    24  H    2.623741   3.315191   4.373578   3.458224   3.208240
    25  H    3.896969   4.716713   5.689276   5.074052   4.409016
    26  C    4.371279   5.279773   6.317985   5.258542   5.298876
    27  H    5.021930   5.698286   6.783999   5.570060   5.575474
    28  O    4.902794   5.958504   6.935565   5.891444   6.152808
                   16         17         18         19         20
    16  C    0.000000
    17  H    1.101578   0.000000
    18  H    1.091997   1.778556   0.000000
    19  H    1.087665   1.769023   1.767277   0.000000
    20  C    3.357623   4.258182   3.892151   2.848551   0.000000
    21  H    4.277633   5.119065   4.822766   3.588349   1.091147
    22  H    2.749631   3.706882   3.138801   2.084331   1.088948
    23  C    4.033478   5.041078   4.298539   3.839982   1.529807
    24  H    3.588145   4.582587   3.741597   3.693254   2.168307
    25  H    4.888199   5.821193   5.252274   4.733056   2.183960
    26  C    4.873673   5.957314   4.863946   4.586116   2.546636
    27  H    5.657231   6.742243   5.545716   5.513964   3.537925
    28  O    5.073994   6.146369   5.001020   4.585985   2.853517
                   21         22         23         24         25
    21  H    0.000000
    22  H    1.738912   0.000000
    23  C    2.149859   2.136909   0.000000
    24  H    3.061862   2.514706   1.096338   0.000000
    25  H    2.522792   3.062396   1.096909   1.745412   0.000000
    26  C    2.791363   2.737828   1.501956   2.105928   2.112534
    27  H    3.811690   3.788033   2.210553   2.511892   2.476725
    28  O    2.833846   2.722712   2.405847   3.071799   3.115660
                   26         27         28
    26  C    0.000000
    27  H    1.112454   0.000000
    28  O    1.204867   2.010131   0.000000
 Stoichiometry    C11H15NO
 Framework group  C1[X(C11H15NO)]
 Deg. of freedom    78
 Full point group                 C1      NOp   1
 Largest Abelian subgroup         C1      NOp   1
 Largest concise Abelian subgroup C1      NOp   1
                         Standard orientation:                         
 ---------------------------------------------------------------------
 Center     Atomic      Atomic             Coordinates (Angstroms)
 Number     Number       Type             X           Y           Z
 ---------------------------------------------------------------------
      1          6           0       -0.272962   -0.821932    0.304875
      2          6           0       -0.910699   -2.060703    0.317395
      3          6           0       -2.265994   -2.192382    0.034593
      4          6           0       -3.009414   -1.062015   -0.270256
      5          6           0       -2.398584    0.186978   -0.268920
      6          6           0       -1.040170    0.326109    0.022048
      7          1           0       -0.323987   -2.945817    0.535701
      8          1           0       -2.730504   -3.170116    0.044240
      9          1           0       -4.064546   -1.144532   -0.499486
     10          1           0       -2.990802    1.064137   -0.491922
     11          7           0       -0.399435    1.602365    0.022284
     12          6           0       -0.926453    2.589607   -0.905328
     13          1           0       -1.887352    3.026550   -0.589788
     14          1           0       -0.209428    3.408569   -0.993134
     15          1           0       -1.059416    2.141428   -1.889741
     16          6           0       -0.201949    2.170034    1.354044
     17          1           0       -1.142254    2.554549    1.780012
     18          1           0        0.513379    2.993405    1.300902
     19          1           0        0.190060    1.419413    2.036621
     20          6           0        1.221347   -0.750358    0.506006
     21          1           0        1.579847   -1.694457    0.919233
     22          1           0        1.501052    0.014928    1.228440
     23          6           0        1.960363   -0.464736   -0.802652
     24          1           0        1.604113    0.474533   -1.241760
     25          1           0        1.755140   -1.235828   -1.555320
     26          6           0        3.451068   -0.351845   -0.657990
     27          1           0        3.998546   -0.187956   -1.612433
     28          8           0        4.052859   -0.418488    0.383696
 ---------------------------------------------------------------------
 Rotational constants (GHZ):      1.0855272      0.5677395      0.4212937
 Standard basis: def2TZVP (5D, 7F)
 There are   558 symmetry adapted cartesian basis functions of A   symmetry.
 There are   493 symmetry adapted basis functions of A   symmetry.
   493 basis functions,   783 primitive gaussians,   558 cartesian basis functions
    48 alpha electrons       48 beta electrons
       nuclear repulsion energy       782.6708924195 Hartrees.
 NAtoms=   28 NActive=   28 NUniq=   28 SFac= 1.00D+00 NAtFMM=   60 NAOKFM=F Big=F
 Integral buffers will be    131072 words long.
 Raffenetti 2 integral format.
 Two-electron integral symmetry is turned on.
 Nuclear repulsion after empirical dispersion term =      782.6452274394 Hartrees.
 One-electron integrals computed using PRISM.
   1 Symmetry operations used in ECPInt.
 ECPInt:  NShTT=   20706 NPrTT=   61756 LenC2=   19580 LenP2D=   44244.
 LDataN:  DoStor=T MaxTD1= 6 Len=  172
 NBasis=   493 RedAO= T EigKep=  5.64D-06  NBF=   493
 NBsUse=   493 1.00D-06 EigRej= -1.00D+00 NBFU=   493
 ExpMin= 9.52D-02 ExpMax= 2.70D+04 ExpMxC= 9.22D+02 IAcc=3 IRadAn=         5 AccDes= 0.00D+00
 Harris functional with IExCor=  402 and IRadAn=       5 diagonalized for initial guess.
 HarFok:  IExCor=  402 AccDes= 0.00D+00 IRadAn=         5 IDoV= 1 UseB2=F ITyADJ=14
 ICtDFT=  3500011 ScaDFX=  1.000000  1.000000  1.000000  1.000000
 FoFCou: FMM=F IPFlag=           0 FMFlag=      100000 FMFlg1=           0
         NFxFlg=           0 DoJE=T BraDBF=F KetDBF=T FulRan=T
         wScrn=  0.000000 ICntrl=     500 IOpCl=  0 I1Cent=   200000004 NGrid=           0
         NMat0=    1 NMatS0=      1 NMatT0=    0 NMatD0=    1 NMtDS0=    0 NMtDT0=    0
 Petite list used in FoFCou.
 Keep R1 ints in memory in canonical form, NReq=7502545268.
 Requested convergence on RMS density matrix=1.00D-08 within 300 cycles.
 Requested convergence on MAX density matrix=1.00D-06.
 Requested convergence on             energy=1.00D-06.
 No special actions if energy rises.
 Integral accuracy reduced to 1.0D-05 until final iterations.
 Initial convergence to 1.0D-05 achieved.  Increase integral accuracy.
 SCF Done:  E(RB3LYP) =  -558.395149893     A.U. after   14 cycles
            NFock= 14  Conv=0.36D-08     -V/T= 2.0052

 **********************************************************************

            Population analysis using the SCF density.

 **********************************************************************

 Orbital symmetries:
       Occupied  (A) (A) (A) (A) (A) (A) (A) (A) (A) (A) (A) (A)
                 (A) (A) (A) (A) (A) (A) (A) (A) (A) (A) (A) (A)
                 (A) (A) (A) (A) (A) (A) (A) (A) (A) (A) (A) (A)
                 (A) (A) (A) (A) (A) (A) (A) (A) (A) (A) (A) (A)
       Virtual   (A) (A) (A) (A) (A) (A) (A) (A) (A) (A) (A) (A)
                 (A) (A) (A) (A) (A) (A) (A) (A) (A) (A) (A) (A)
                 (A) (A) (A) (A) (A) (A) (A) (A) (A) (A) (A) (A)
                 (A) (A) (A) (A) (A) (A) (A) (A) (A) (A) (A) (A)
                 (A) (A) (A) (A) (A) (A) (A) (A) (A) (A) (A) (A)
                 (A) (A) (A) (A) (A) (A) (A) (A) (A) (A) (A) (A)
                 (A) (A) (A) (A) (A) (A) (A) (A) (A) (A) (A) (A)
                 (A) (A) (A) (A) (A) (A) (A) (A) (A) (A) (A) (A)
                 (A) (A) (A) (A) (A) (A) (A) (A) (A) (A) (A) (A)
                 (A) (A) (A) (A) (A) (A) (A) (A) (A) (A) (A) (A)
                 (A) (A) (A) (A) (A) (A) (A) (A) (A) (A) (A) (A)
                 (A) (A) (A) (A) (A) (A) (A) (A) (A) (A) (A) (A)
                 (A) (A) (A) (A) (A) (A) (A) (A) (A) (A) (A) (A)
                 (A) (A) (A) (A) (A) (A) (A) (A) (A) (A) (A) (A)
                 (A) (A) (A) (A) (A) (A) (A) (A) (A) (A) (A) (A)
                 (A) (A) (A) (A) (A) (A) (A) (A) (A) (A) (A) (A)
                 (A) (A) (A) (A) (A) (A) (A) (A) (A) (A) (A) (A)
                 (A) (A) (A) (A) (A) (A) (A) (A) (A) (A) (A) (A)
                 (A) (A) (A) (A) (A) (A) (A) (A) (A) (A) (A) (A)
                 (A) (A) (A) (A) (A) (A) (A) (A) (A) (A) (A) (A)
                 (A) (A) (A) (A) (A) (A) (A) (A) (A) (A) (A) (A)
                 (A) (A) (A) (A) (A) (A) (A) (A) (A) (A) (A) (A)
                 (A) (A) (A) (A) (A) (A) (A) (A) (A) (A) (A) (A)
                 (A) (A) (A) (A) (A) (A) (A) (A) (A) (A) (A) (A)
                 (A) (A) (A) (A) (A) (A) (A) (A) (A) (A) (A) (A)
                 (A) (A) (A) (A) (A) (A) (A) (A) (A) (A) (A) (A)
                 (A) (A) (A) (A) (A) (A) (A) (A) (A) (A) (A) (A)
                 (A) (A) (A) (A) (A) (A) (A) (A) (A) (A) (A) (A)
                 (A) (A) (A) (A) (A) (A) (A) (A) (A) (A) (A) (A)
                 (A) (A) (A) (A) (A) (A) (A) (A) (A) (A) (A) (A)
                 (A) (A) (A) (A) (A) (A) (A) (A) (A) (A) (A) (A)
                 (A) (A) (A) (A) (A) (A) (A) (A) (A) (A) (A) (A)
                 (A) (A) (A) (A) (A) (A) (A) (A) (A) (A) (A) (A)
                 (A) (A) (A) (A) (A) (A) (A) (A) (A) (A) (A) (A)
                 (A) (A) (A) (A) (A) (A) (A) (A) (A) (A) (A) (A)
                 (A) (A) (A) (A) (A) (A) (A) (A) (A) (A) (A) (A)
                 (A) (A) (A) (A) (A) (A) (A) (A) (A) (A) (A) (A)
                 (A)
 The electronic state is 1-A.
 Alpha  occ. eigenvalues --  -19.12664 -14.32447 -10.26147 -10.20856 -10.19824
 Alpha  occ. eigenvalues --  -10.19759 -10.18277 -10.18276 -10.17587 -10.17532
 Alpha  occ. eigenvalues --  -10.17415 -10.17402 -10.17248  -1.05316  -0.94319
 Alpha  occ. eigenvalues --   -0.85540  -0.80312  -0.74889  -0.74733  -0.71746
 Alpha  occ. eigenvalues --   -0.67606  -0.65065  -0.60028  -0.58115  -0.55922
 Alpha  occ. eigenvalues --   -0.52128  -0.49406  -0.49135  -0.47289  -0.46780
 Alpha  occ. eigenvalues --   -0.45849  -0.44901  -0.43962  -0.43470  -0.40953
 Alpha  occ. eigenvalues --   -0.40183  -0.39609  -0.39077  -0.38320  -0.37874
 Alpha  occ. eigenvalues --   -0.36104  -0.35806  -0.34740  -0.34201  -0.27225
 Alpha  occ. eigenvalues --   -0.26460  -0.24954  -0.21814
 Alpha virt. eigenvalues --   -0.02940  -0.01433  -0.01231   0.02680   0.04909
 Alpha virt. eigenvalues --    0.05071   0.05484   0.07759   0.07988   0.08559
 Alpha virt. eigenvalues --    0.09069   0.09509   0.09801   0.10858   0.11340
 Alpha virt. eigenvalues --    0.12264   0.12604   0.13622   0.14218   0.14686
 Alpha virt. eigenvalues --    0.15367   0.16348   0.18132   0.18659   0.19397
 Alpha virt. eigenvalues --    0.20274   0.20748   0.21349   0.22259   0.23332
 Alpha virt. eigenvalues --    0.23551   0.24417   0.24539   0.25407   0.26133
 Alpha virt. eigenvalues --    0.27292   0.27875   0.29467   0.29567   0.30529
 Alpha virt. eigenvalues --    0.31227   0.31524   0.32683   0.32931   0.34096
 Alpha virt. eigenvalues --    0.34273   0.35183   0.35533   0.36253   0.37242
 Alpha virt. eigenvalues --    0.37683   0.39114   0.39482   0.40237   0.40473
 Alpha virt. eigenvalues --    0.40721   0.41566   0.42565   0.42806   0.43101
 Alpha virt. eigenvalues --    0.43805   0.44432   0.44598   0.44799   0.45357
 Alpha virt. eigenvalues --    0.45644   0.46426   0.47175   0.48242   0.48568
 Alpha virt. eigenvalues --    0.49041   0.49938   0.50486   0.50696   0.51260
 Alpha virt. eigenvalues --    0.52010   0.53296   0.53540   0.55177   0.56958
 Alpha virt. eigenvalues --    0.57054   0.57841   0.59475   0.61065   0.62643
 Alpha virt. eigenvalues --    0.63639   0.64623   0.65617   0.66518   0.67465
 Alpha virt. eigenvalues --    0.68623   0.69314   0.69848   0.71187   0.71754
 Alpha virt. eigenvalues --    0.72851   0.74600   0.75441   0.76558   0.77938
 Alpha virt. eigenvalues --    0.79333   0.81477   0.81814   0.82577   0.83531
 Alpha virt. eigenvalues --    0.84502   0.85790   0.87057   0.88612   0.88798
 Alpha virt. eigenvalues --    0.90567   0.91358   0.91953   0.92465   0.93986
 Alpha virt. eigenvalues --    0.96285   0.97277   0.98614   1.01081   1.02053
 Alpha virt. eigenvalues --    1.02110   1.02699   1.05827   1.06189   1.07410
 Alpha virt. eigenvalues --    1.08394   1.09159   1.10169   1.11495   1.12352
 Alpha virt. eigenvalues --    1.14189   1.15944   1.16776   1.17450   1.18216
 Alpha virt. eigenvalues --    1.21799   1.22191   1.22458   1.25348   1.26711
 Alpha virt. eigenvalues --    1.26953   1.27513   1.29437   1.30789   1.33260
 Alpha virt. eigenvalues --    1.34497   1.35328   1.36799   1.40021   1.41421
 Alpha virt. eigenvalues --    1.42374   1.42671   1.42953   1.44814   1.45409
 Alpha virt. eigenvalues --    1.46162   1.48711   1.49386   1.50941   1.51875
 Alpha virt. eigenvalues --    1.53449   1.53748   1.54212   1.54360   1.54919
 Alpha virt. eigenvalues --    1.55416   1.56554   1.57402   1.58909   1.59346
 Alpha virt. eigenvalues --    1.59690   1.59896   1.61742   1.63196   1.64399
 Alpha virt. eigenvalues --    1.65000   1.65467   1.68050   1.69206   1.70253
 Alpha virt. eigenvalues --    1.71304   1.72504   1.73971   1.74972   1.76502
 Alpha virt. eigenvalues --    1.77097   1.80695   1.82506   1.85488   1.85860
 Alpha virt. eigenvalues --    1.87159   1.88311   1.89676   1.90632   1.92531
 Alpha virt. eigenvalues --    1.93224   1.94807   1.95507   1.97163   1.98346
 Alpha virt. eigenvalues --    1.99832   2.02012   2.03785   2.04017   2.06375
 Alpha virt. eigenvalues --    2.07200   2.07967   2.10938   2.11697   2.13070
 Alpha virt. eigenvalues --    2.15335   2.16241   2.17138   2.18263   2.19335
 Alpha virt. eigenvalues --    2.19812   2.21077   2.22199   2.23580   2.24497
 Alpha virt. eigenvalues --    2.25821   2.27513   2.29197   2.30928   2.32161
 Alpha virt. eigenvalues --    2.33368   2.34995   2.36203   2.39820   2.40659
 Alpha virt. eigenvalues --    2.41944   2.42932   2.43710   2.46446   2.48149
 Alpha virt. eigenvalues --    2.49420   2.51171   2.52171   2.52276   2.53324
 Alpha virt. eigenvalues --    2.54358   2.54795   2.55112   2.56957   2.58292
 Alpha virt. eigenvalues --    2.59061   2.59287   2.60965   2.62678   2.63413
 Alpha virt. eigenvalues --    2.64179   2.64959   2.66140   2.66940   2.68104
 Alpha virt. eigenvalues --    2.69101   2.70416   2.70484   2.71579   2.72876
 Alpha virt. eigenvalues --    2.74032   2.74960   2.76325   2.77396   2.77802
 Alpha virt. eigenvalues --    2.79703   2.81386   2.82382   2.82772   2.83634
 Alpha virt. eigenvalues --    2.85449   2.86678   2.87705   2.88268   2.89587
 Alpha virt. eigenvalues --    2.90672   2.91834   2.93376   2.94830   2.97400
 Alpha virt. eigenvalues --    2.99492   3.00552   3.01600   3.02714   3.04290
 Alpha virt. eigenvalues --    3.05037   3.06180   3.07150   3.08070   3.09503
 Alpha virt. eigenvalues --    3.10270   3.12425   3.13337   3.13642   3.13958
 Alpha virt. eigenvalues --    3.14215   3.15378   3.17108   3.18281   3.18694
 Alpha virt. eigenvalues --    3.19440   3.20027   3.21744   3.22906   3.23727
 Alpha virt. eigenvalues --    3.24983   3.25475   3.26344   3.27837   3.28987
 Alpha virt. eigenvalues --    3.29392   3.31056   3.32195   3.32911   3.34127
 Alpha virt. eigenvalues --    3.34437   3.35702   3.37457   3.38527   3.39423
 Alpha virt. eigenvalues --    3.39813   3.40388   3.41562   3.42530   3.44741
 Alpha virt. eigenvalues --    3.46029   3.46378   3.48278   3.49802   3.51137
 Alpha virt. eigenvalues --    3.52067   3.53215   3.54819   3.55157   3.57024
 Alpha virt. eigenvalues --    3.57487   3.59161   3.60434   3.60968   3.62528
 Alpha virt. eigenvalues --    3.63015   3.66414   3.67252   3.69563   3.70011
 Alpha virt. eigenvalues --    3.71564   3.74255   3.75386   3.76826   3.79338
 Alpha virt. eigenvalues --    3.80843   3.83217   3.86233   3.86718   3.87534
 Alpha virt. eigenvalues --    3.90617   3.91104   3.93197   3.93993   3.98505
 Alpha virt. eigenvalues --    3.99236   4.01899   4.07542   4.10160   4.11102
 Alpha virt. eigenvalues --    4.12315   4.14479   4.15828   4.17254   4.19550
 Alpha virt. eigenvalues --    4.20515   4.22653   4.23924   4.24695   4.26842
 Alpha virt. eigenvalues --    4.28078   4.28845   4.30147   4.32848   4.34108
 Alpha virt. eigenvalues --    4.34918   4.37307   4.39579   4.41924   4.43433
 Alpha virt. eigenvalues --    4.46945   4.47169   4.50640   4.54498   4.59592
 Alpha virt. eigenvalues --    4.61774   4.63234   4.67452   4.69960   4.70923
 Alpha virt. eigenvalues --    4.75663   4.77871   4.82553   4.87127   4.91348
 Alpha virt. eigenvalues --    4.94428   4.98147   4.98726   5.04356   5.13519
 Alpha virt. eigenvalues --    5.14917   5.17874   5.19097   5.23391   5.25835
 Alpha virt. eigenvalues --    5.28476   5.32777   5.36261   5.38881   5.45402
 Alpha virt. eigenvalues --    5.49056   5.53566   5.55962   5.57128   5.65609
 Alpha virt. eigenvalues --    5.76628   5.77233   5.93154   5.97353   6.11120
 Alpha virt. eigenvalues --    6.31695   6.34507   6.41274   6.46518   6.78671
 Alpha virt. eigenvalues --    6.93267   7.04635  22.14936  22.39603  22.43345
 Alpha virt. eigenvalues --   22.49689  22.54954  22.64468  22.70525  22.72958
 Alpha virt. eigenvalues --   22.87031  22.88988  23.35229  32.73205  43.75285
          Condensed to atoms (all electrons):
               1          2          3          4          5          6
     1  C    5.323457   0.373060   0.026276  -0.085144   0.036257   0.281333
     2  C    0.373060   5.158745   0.391731   0.042429  -0.144256   0.007438
     3  C    0.026276   0.391731   4.977388   0.431844   0.040070  -0.094741
     4  C   -0.085144   0.042429   0.431844   4.994180   0.371081   0.009858
     5  C    0.036257  -0.144256   0.040070   0.371081   5.184485   0.389650
     6  C    0.281333   0.007438  -0.094741   0.009858   0.389650   5.213816
     7  H   -0.076207   0.443564  -0.061268   0.013287  -0.005116   0.020424
     8  H    0.013662  -0.058516   0.432360  -0.054479   0.012443  -0.002672
     9  H   -0.001703   0.009586  -0.050429   0.422599  -0.049916   0.011721
    10  H    0.008563  -0.001552   0.009590  -0.043216   0.439257  -0.068233
    11  N   -0.112171   0.003464   0.000037   0.008570  -0.075932   0.335419
    12  C    0.013510  -0.000620   0.000578  -0.001632   0.002343  -0.086246
    13  H   -0.004732  -0.000434   0.000389  -0.002900   0.005862  -0.013835
    14  H    0.000445   0.000080  -0.000026   0.000195   0.000763   0.009908
    15  H    0.004566   0.000630  -0.000552   0.001602  -0.011307   0.000905
    16  C    0.025651   0.003667  -0.000478   0.000963  -0.017049  -0.078887
    17  H   -0.005685  -0.001016   0.000274  -0.002086   0.008142  -0.005096
    18  H   -0.000209   0.000015  -0.000029   0.000157  -0.000177   0.013226
    19  H    0.008375   0.002758  -0.000365   0.000544  -0.000988  -0.016172
    20  C    0.258726  -0.072140   0.017645  -0.006815   0.026607  -0.109682
    21  H   -0.068133   0.008973   0.000423   0.000344  -0.001175   0.008139
    22  H   -0.033599   0.007440  -0.001578   0.000636  -0.001424  -0.018091
    23  C   -0.043203  -0.018126   0.002336  -0.000451   0.000302  -0.006529
    24  H    0.008071   0.004886  -0.000183   0.000058  -0.002290  -0.016961
    25  H   -0.015297  -0.000436  -0.000061  -0.000109   0.000181   0.009936
    26  C    0.015995  -0.000782  -0.000215   0.000053  -0.000200  -0.000005
    27  H    0.002137  -0.000164  -0.000008   0.000002  -0.000008  -0.000127
    28  O    0.007870  -0.000239  -0.000016   0.000002  -0.000010   0.000166
               7          8          9         10         11         12
     1  C   -0.076207   0.013662  -0.001703   0.008563  -0.112171   0.013510
     2  C    0.443564  -0.058516   0.009586  -0.001552   0.003464  -0.000620
     3  C   -0.061268   0.432360  -0.050429   0.009590   0.000037   0.000578
     4  C    0.013287  -0.054479   0.422599  -0.043216   0.008570  -0.001632
     5  C   -0.005116   0.012443  -0.049916   0.439257  -0.075932   0.002343
     6  C    0.020424  -0.002672   0.011721  -0.068233   0.335419  -0.086246
     7  H    0.577851  -0.007878  -0.000361   0.000059  -0.000336   0.000033
     8  H   -0.007878   0.567979  -0.007068  -0.000289   0.000040  -0.000002
     9  H   -0.000361  -0.007068   0.567248  -0.007038  -0.000290  -0.000041
    10  H    0.000059  -0.000289  -0.007038   0.562138  -0.004720   0.002795
    11  N   -0.000336   0.000040  -0.000290  -0.004720   6.695066   0.282742
    12  C    0.000033  -0.000002  -0.000041   0.002795   0.282742   4.927876
    13  H   -0.000004   0.000002   0.000058   0.004008  -0.037745   0.400931
    14  H    0.000000   0.000000  -0.000003  -0.000005  -0.049051   0.408504
    15  H    0.000008  -0.000002  -0.000001  -0.002794  -0.042394   0.415810
    16  C    0.000069  -0.000010   0.000030  -0.000579   0.270005  -0.065129
    17  H   -0.000016   0.000002   0.000029   0.000653  -0.037205  -0.014404
    18  H    0.000001   0.000000  -0.000002  -0.000069  -0.048277  -0.005472
    19  H    0.000060  -0.000003  -0.000002  -0.000009  -0.038814   0.011186
    20  C   -0.010493  -0.000470   0.000099  -0.000123   0.009052  -0.003302
    21  H    0.005612  -0.000080   0.000000   0.000014   0.001096  -0.000055
    22  H    0.000664   0.000009  -0.000003  -0.000004  -0.006345   0.000097
    23  C   -0.000549   0.000050  -0.000009  -0.000014  -0.015285   0.002681
    24  H   -0.000004   0.000001   0.000005   0.000025   0.029506  -0.001911
    25  H    0.000490   0.000015   0.000000   0.000005   0.001381  -0.000042
    26  C   -0.000121   0.000001   0.000000  -0.000003   0.002584  -0.000068
    27  H    0.000003   0.000000   0.000000   0.000000   0.000113   0.000009
    28  O    0.000005   0.000000   0.000000   0.000000   0.000078   0.000000
              13         14         15         16         17         18
     1  C   -0.004732   0.000445   0.004566   0.025651  -0.005685  -0.000209
     2  C   -0.000434   0.000080   0.000630   0.003667  -0.001016   0.000015
     3  C    0.000389  -0.000026  -0.000552  -0.000478   0.000274  -0.000029
     4  C   -0.002900   0.000195   0.001602   0.000963  -0.002086   0.000157
     5  C    0.005862   0.000763  -0.011307  -0.017049   0.008142  -0.000177
     6  C   -0.013835   0.009908   0.000905  -0.078887  -0.005096   0.013226
     7  H   -0.000004   0.000000   0.000008   0.000069  -0.000016   0.000001
     8  H    0.000002   0.000000  -0.000002  -0.000010   0.000002   0.000000
     9  H    0.000058  -0.000003  -0.000001   0.000030   0.000029  -0.000002
    10  H    0.004008  -0.000005  -0.002794  -0.000579   0.000653  -0.000069
    11  N   -0.037745  -0.049051  -0.042394   0.270005  -0.037205  -0.048277
    12  C    0.400931   0.408504   0.415810  -0.065129  -0.014404  -0.005472
    13  H    0.635843  -0.045347  -0.042081  -0.018579   0.022053  -0.003455
    14  H   -0.045347   0.568419  -0.015417  -0.001377  -0.004132   0.004746
    15  H   -0.042081  -0.015417   0.548572   0.012754  -0.001353   0.000451
    16  C   -0.018579  -0.001377   0.012754   4.928823   0.387979   0.407944
    17  H    0.022053  -0.004132  -0.001353   0.387979   0.628967  -0.042943
    18  H   -0.003455   0.004746   0.000451   0.407944  -0.042943   0.576804
    19  H   -0.001134   0.000575  -0.000284   0.418878  -0.035930  -0.018841
    20  C    0.000512  -0.000360  -0.000950  -0.016933   0.002587  -0.000095
    21  H    0.000009  -0.000004  -0.000003   0.000256   0.000026  -0.000034
    22  H   -0.000081   0.000074   0.000082   0.000919  -0.000244  -0.000354
    23  C   -0.000291   0.000675   0.001002   0.000160  -0.000081  -0.000140
    24  H    0.000840  -0.001360  -0.001381  -0.000596   0.000398  -0.000511
    25  H    0.000024  -0.000040  -0.000074  -0.000166   0.000021  -0.000005
    26  C    0.000011  -0.000025  -0.000008   0.000163   0.000000   0.000075
    27  H    0.000000   0.000002   0.000004  -0.000014  -0.000001   0.000017
    28  O    0.000000   0.000000   0.000001   0.000009  -0.000001   0.000033
              19         20         21         22         23         24
     1  C    0.008375   0.258726  -0.068133  -0.033599  -0.043203   0.008071
     2  C    0.002758  -0.072140   0.008973   0.007440  -0.018126   0.004886
     3  C   -0.000365   0.017645   0.000423  -0.001578   0.002336  -0.000183
     4  C    0.000544  -0.006815   0.000344   0.000636  -0.000451   0.000058
     5  C   -0.000988   0.026607  -0.001175  -0.001424   0.000302  -0.002290
     6  C   -0.016172  -0.109682   0.008139  -0.018091  -0.006529  -0.016961
     7  H    0.000060  -0.010493   0.005612   0.000664  -0.000549  -0.000004
     8  H   -0.000003  -0.000470  -0.000080   0.000009   0.000050   0.000001
     9  H   -0.000002   0.000099   0.000000  -0.000003  -0.000009   0.000005
    10  H   -0.000009  -0.000123   0.000014  -0.000004  -0.000014   0.000025
    11  N   -0.038814   0.009052   0.001096  -0.006345  -0.015285   0.029506
    12  C    0.011186  -0.003302  -0.000055   0.000097   0.002681  -0.001911
    13  H   -0.001134   0.000512   0.000009  -0.000081  -0.000291   0.000840
    14  H    0.000575  -0.000360  -0.000004   0.000074   0.000675  -0.001360
    15  H   -0.000284  -0.000950  -0.000003   0.000082   0.001002  -0.001381
    16  C    0.418878  -0.016933   0.000256   0.000919   0.000160  -0.000596
    17  H   -0.035930   0.002587   0.000026  -0.000244  -0.000081   0.000398
    18  H   -0.018841  -0.000095  -0.000034  -0.000354  -0.000140  -0.000511
    19  H    0.545162  -0.008618  -0.000299   0.004109   0.001268  -0.000485
    20  C   -0.008618   5.123627   0.419235   0.435568   0.219846  -0.048641
    21  H   -0.000299   0.419235   0.571270  -0.020978  -0.045588   0.006425
    22  H    0.004109   0.435568  -0.020978   0.584521  -0.070692  -0.003103
    23  C    0.001268   0.219846  -0.045588  -0.070692   5.689051   0.362488
    24  H   -0.000485  -0.048641   0.006425  -0.003103   0.362488   0.554353
    25  H   -0.000062  -0.030076  -0.002115   0.006896   0.357856  -0.018874
    26  C   -0.000331  -0.014324   0.000113   0.004121   0.106767  -0.009731
    27  H   -0.000018   0.015139   0.001307   0.001712  -0.217818   0.008074
    28  O   -0.000169   0.007018   0.008589   0.013463  -0.157463   0.003656
              25         26         27         28
     1  C   -0.015297   0.015995   0.002137   0.007870
     2  C   -0.000436  -0.000782  -0.000164  -0.000239
     3  C   -0.000061  -0.000215  -0.000008  -0.000016
     4  C   -0.000109   0.000053   0.000002   0.000002
     5  C    0.000181  -0.000200  -0.000008  -0.000010
     6  C    0.009936  -0.000005  -0.000127   0.000166
     7  H    0.000490  -0.000121   0.000003   0.000005
     8  H    0.000015   0.000001   0.000000   0.000000
     9  H    0.000000   0.000000   0.000000   0.000000
    10  H    0.000005  -0.000003   0.000000   0.000000
    11  N    0.001381   0.002584   0.000113   0.000078
    12  C   -0.000042  -0.000068   0.000009   0.000000
    13  H    0.000024   0.000011   0.000000   0.000000
    14  H   -0.000040  -0.000025   0.000002   0.000000
    15  H   -0.000074  -0.000008   0.000004   0.000001
    16  C   -0.000166   0.000163  -0.000014   0.000009
    17  H    0.000021   0.000000  -0.000001  -0.000001
    18  H   -0.000005   0.000075   0.000017   0.000033
    19  H   -0.000062  -0.000331  -0.000018  -0.000169
    20  C   -0.030076  -0.014324   0.015139   0.007018
    21  H   -0.002115   0.000113   0.001307   0.008589
    22  H    0.006896   0.004121   0.001712   0.013463
    23  C    0.357856   0.106767  -0.217818  -0.157463
    24  H   -0.018874  -0.009731   0.008074   0.003656
    25  H    0.576319  -0.011308   0.006832   0.003927
    26  C   -0.011308   4.690974   0.462642   0.662729
    27  H    0.006832   0.462642   0.708933  -0.059266
    28  O    0.003927   0.662729  -0.059266   7.781870
 Mulliken charges:
               1
     1  C    0.038130
     2  C   -0.160188
     3  C   -0.120990
     4  C   -0.101572
     5  C   -0.207595
     6  C    0.205338
     7  H    0.100224
     8  H    0.104901
     9  H    0.105491
    10  H    0.101542
    11  N   -0.170587
    12  C   -0.290171
    13  H    0.100075
    14  H    0.122760
    15  H    0.132212
    16  C   -0.258474
    17  H    0.099059
    18  H    0.117142
    19  H    0.129608
    20  C   -0.212641
    21  H    0.106630
    22  H    0.096184
    23  C   -0.168243
    24  H    0.127244
    25  H    0.114784
    26  C    0.090892
    27  H    0.070497
    28  O   -0.272252
 Sum of Mulliken charges =   0.00000
 Mulliken charges with hydrogens summed into heavy atoms:
               1
     1  C    0.038130
     2  C   -0.059964
     3  C   -0.016089
     4  C    0.003918
     5  C   -0.106053
     6  C    0.205338
    11  N   -0.170587
    12  C    0.064877
    16  C    0.087335
    20  C   -0.009827
    23  C    0.073785
    26  C    0.161388
    28  O   -0.272252
 Electronic spatial extent (au):  <R**2>=           2742.0898
 Charge=              0.0000 electrons
 Dipole moment (field-independent basis, Debye):
    X=             -2.1167    Y=              0.9392    Z=             -1.6741  Tot=              2.8575
 Quadrupole moment (field-independent basis, Debye-Ang):
   XX=            -89.7066   YY=            -72.9154   ZZ=            -79.6134
   XY=              0.3150   XZ=             -5.3010   YZ=              0.4092
 Traceless Quadrupole moment (field-independent basis, Debye-Ang):
   XX=             -8.9615   YY=              7.8297   ZZ=              1.1317
   XY=              0.3150   XZ=             -5.3010   YZ=              0.4092
 Octapole moment (field-independent basis, Debye-Ang**2):
  XXX=            -62.8062  YYY=              0.5159  ZZZ=             -0.0753  XYY=              3.0893
  XXY=              5.3700  XXZ=            -32.3843  XZZ=             14.2873  YZZ=              6.6907
  YYZ=              1.2638  XYZ=              3.7348
 Hexadecapole moment (field-independent basis, Debye-Ang**3):
 XXXX=          -2431.0041 YYYY=          -1151.7119 ZZZZ=           -338.1421 XXXY=             37.0233
 XXXZ=            -80.6551 YYYX=              8.9284 YYYZ=             -9.5586 ZZZX=              1.7139
 ZZZY=              1.0817 XXYY=           -542.1121 XXZZ=           -426.2129 YYZZ=           -262.4145
 XXYZ=             12.1739 YYXZ=              3.2262 ZZXY=            -11.9459
 N-N= 7.826452274394D+02 E-N=-2.863523645786D+03  KE= 5.555158544447D+02
 Running external command "gaunbo6 R"
         input file       "/home/aloke/aloke/prakash/Gau-43295.EIn"
         output file      "/home/aloke/aloke/prakash/Gau-43295.EOu"
         message file     "/home/aloke/aloke/prakash/Gau-43295.EMs"
         fchk file        "/home/aloke/aloke/prakash/Gau-43295.EFC"
         mat. el file     "/home/aloke/aloke/prakash/Gau-43295.EUF"

 Writing Wrt12E file "/home/aloke/aloke/prakash/Gau-43295.EUF"
 Gaussian matrix elements                                         Version   1 NLab= 7 Len12L=8 Len4L=8
 Write GAUSSIAN SCALARS               from file   501 offset           0 to matrix element file.
 Write OVERLAP                        from file   514 offset           0 to matrix element file.
 Write CORE HAMILTONIAN ALPHA         from file   515 offset           0 to matrix element file.
 Write CORE HAMILTONIAN BETA          from file   515 offset      121771 to matrix element file.
 Write KINETIC ENERGY                 from file   516 offset           0 to matrix element file.
 Write ORTHOGONAL BASIS               from file   685 offset           0 to matrix element file.
 Write DIPOLE INTEGRALS               from file   518 offset           0 to matrix element file.
 Array DIP VEL INTEGRALS               on  file    572 does not exist.
 Array R X DEL INTEGRALS               on  file    572 does not exist.
 Write ALPHA ORBITAL ENERGIES         from file     0 offset           0 to matrix element file.
 Write ALPHA MO COEFFICIENTS          from file 10524 offset           0 to matrix element file.
 Write ALPHA DENSITY MATRIX           from file     0 offset           0 to matrix element file.
 Write ALPHA SCF DENSITY MATRIX       from file 10528 offset           0 to matrix element file.
 Write ALPHA FOCK MATRIX              from file 10536 offset           0 to matrix element file.
 No 2e integrals to process.
 Perform NBO analysis...

 *********************************** NBO 6.0 ***********************************
             N A T U R A L   A T O M I C   O R B I T A L   A N D
          N A T U R A L   B O N D   O R B I T A L   A N A L Y S I S
 ************************* Aloke Das Software (101058) *************************
  (c) Copyright 1996-2016 Board of Regents of the University of Wisconsin System
      on behalf of the Theoretical Chemistry Institute.  All rights reserved.

          Cite this program as:

          NBO 6.0.  E. D. Glendening, J. K. Badenhoop, A. E. Reed,
          J. E. Carpenter, J. A. Bohmann, C. M. Morales, C. R. Landis,
          and F. Weinhold (Theoretical Chemistry Institute, University
          of Wisconsin, Madison, WI, 2013); http://nbo6.chem.wisc.edu/

       /E2PERT / : Analyze NBO Fock matrix
                   Print threshold set to 0.1
       /AONBO  / : Checkpoint the AO to NBO transformation
                   NBOs sorted by occupancy

 Filename set to /home/aloke/aloke/prakash/Gau-43295

 Job title:  Energy Optimisation and Frequency calculation


 NATURAL POPULATIONS:  Natural atomic orbital occupancies

  NAO Atom No lang   Type(AO)    Occupancy      Energy
 -------------------------------------------------------
   1    C  1  s      Cor( 1s)     1.99999     -10.18261
   2    C  1  s      Val( 2s)     0.92127      -0.10056
   3    C  1  s      Ryd( 3s)     0.00070       1.56302
   4    C  1  s      Ryd( 4s)     0.00013       1.82241
   5    C  1  s      Ryd( 5s)     0.00000      19.66663
   6    C  1  px     Val( 2p)     1.02783      -0.01459
   7    C  1  px     Ryd( 3p)     0.00565       1.15888
   8    C  1  px     Ryd( 4p)     0.00022       2.14351
   9    C  1  py     Val( 2p)     1.05898      -0.01011
  10    C  1  py     Ryd( 3p)     0.00270       0.98929
  11    C  1  py     Ryd( 4p)     0.00029       2.24555
  12    C  1  pz     Val( 2p)     1.00230      -0.09841
  13    C  1  pz     Ryd( 3p)     0.00191       0.76548
  14    C  1  pz     Ryd( 4p)     0.00010       1.50138
  15    C  1  dxy    Ryd( 3d)     0.00119       2.74314
  16    C  1  dxy    Ryd( 4d)     0.00065       4.04865
  17    C  1  dxz    Ryd( 3d)     0.00039       1.79052
  18    C  1  dxz    Ryd( 4d)     0.00026       3.44288
  19    C  1  dyz    Ryd( 3d)     0.00027       1.70450
  20    C  1  dyz    Ryd( 4d)     0.00024       3.45638
  21    C  1  dx2y2  Ryd( 3d)     0.00101       2.86619
  22    C  1  dx2y2  Ryd( 4d)     0.00065       3.93927
  23    C  1  dz2    Ryd( 3d)     0.00088       3.11629
  24    C  1  dz2    Ryd( 4d)     0.00006       3.70201
  25    C  1  f(0)   Ryd( 4f)     0.00041       3.34460
  26    C  1  f(c1)  Ryd( 4f)     0.00041       3.33051
  27    C  1  f(s1)  Ryd( 4f)     0.00031       3.41965
  28    C  1  f(c2)  Ryd( 4f)     0.00009       3.41266
  29    C  1  f(s2)  Ryd( 4f)     0.00006       3.39840
  30    C  1  f(c3)  Ryd( 4f)     0.00070       3.93797
  31    C  1  f(s3)  Ryd( 4f)     0.00013       3.82161

  32    C  2  s      Cor( 1s)     1.99999     -10.17399
  33    C  2  s      Val( 2s)     0.97019      -0.11836
  34    C  2  s      Ryd( 3s)     0.00069       1.89322
  35    C  2  s      Ryd( 4s)     0.00005       2.16625
  36    C  2  s      Ryd( 5s)     0.00000      18.55184
  37    C  2  px     Val( 2p)     1.08190      -0.02261
  38    C  2  px     Ryd( 3p)     0.00330       1.05155
  39    C  2  px     Ryd( 4p)     0.00013       1.95878
  40    C  2  py     Val( 2p)     1.11829      -0.02857
  41    C  2  py     Ryd( 3p)     0.00367       1.09034
  42    C  2  py     Ryd( 4p)     0.00015       2.02742
  43    C  2  pz     Val( 2p)     1.01001      -0.10492
  44    C  2  pz     Ryd( 3p)     0.00145       0.72553
  45    C  2  pz     Ryd( 4p)     0.00019       1.28835
  46    C  2  dxy    Ryd( 3d)     0.00102       2.15274
  47    C  2  dxy    Ryd( 4d)     0.00073       3.97616
  48    C  2  dxz    Ryd( 3d)     0.00044       1.60094
  49    C  2  dxz    Ryd( 4d)     0.00013       3.17421
  50    C  2  dyz    Ryd( 3d)     0.00037       1.59014
  51    C  2  dyz    Ryd( 4d)     0.00010       3.07870
  52    C  2  dx2y2  Ryd( 3d)     0.00158       2.09838
  53    C  2  dx2y2  Ryd( 4d)     0.00032       3.95790
  54    C  2  dz2    Ryd( 3d)     0.00110       1.94808
  55    C  2  dz2    Ryd( 4d)     0.00002       3.43279
  56    C  2  f(0)   Ryd( 4f)     0.00044       3.25729
  57    C  2  f(c1)  Ryd( 4f)     0.00034       3.36407
  58    C  2  f(s1)  Ryd( 4f)     0.00031       3.35447
  59    C  2  f(c2)  Ryd( 4f)     0.00007       3.34833
  60    C  2  f(s2)  Ryd( 4f)     0.00012       3.35504
  61    C  2  f(c3)  Ryd( 4f)     0.00060       3.94136
  62    C  2  f(s3)  Ryd( 4f)     0.00020       3.69832

  63    C  3  s      Cor( 1s)     1.99999     -10.17245
  64    C  3  s      Val( 2s)     0.97424      -0.12260
  65    C  3  s      Ryd( 3s)     0.00063       1.57703
  66    C  3  s      Ryd( 4s)     0.00001       3.03821
  67    C  3  s      Ryd( 5s)     0.00000      19.34175
  68    C  3  px     Val( 2p)     1.06605      -0.01887
  69    C  3  px     Ryd( 3p)     0.00320       0.95595
  70    C  3  px     Ryd( 4p)     0.00016       1.90115
  71    C  3  py     Val( 2p)     1.14545      -0.03592
  72    C  3  py     Ryd( 3p)     0.00410       1.10256
  73    C  3  py     Ryd( 4p)     0.00013       1.99710
  74    C  3  pz     Val( 2p)     1.01170      -0.10192
  75    C  3  pz     Ryd( 3p)     0.00190       0.67904
  76    C  3  pz     Ryd( 4p)     0.00020       1.29004
  77    C  3  dxy    Ryd( 3d)     0.00099       2.11207
  78    C  3  dxy    Ryd( 4d)     0.00053       3.88886
  79    C  3  dxz    Ryd( 3d)     0.00035       1.66247
  80    C  3  dxz    Ryd( 4d)     0.00013       3.16716
  81    C  3  dyz    Ryd( 3d)     0.00040       1.59486
  82    C  3  dyz    Ryd( 4d)     0.00007       2.95018
  83    C  3  dx2y2  Ryd( 3d)     0.00131       2.05223
  84    C  3  dx2y2  Ryd( 4d)     0.00046       3.89806
  85    C  3  dz2    Ryd( 3d)     0.00104       1.87720
  86    C  3  dz2    Ryd( 4d)     0.00004       3.34436
  87    C  3  f(0)   Ryd( 4f)     0.00036       3.25685
  88    C  3  f(c1)  Ryd( 4f)     0.00032       3.39695
  89    C  3  f(s1)  Ryd( 4f)     0.00037       3.36666
  90    C  3  f(c2)  Ryd( 4f)     0.00011       3.35155
  91    C  3  f(s2)  Ryd( 4f)     0.00010       3.33277
  92    C  3  f(c3)  Ryd( 4f)     0.00054       3.95291
  93    C  3  f(s3)  Ryd( 4f)     0.00016       3.64211

  94    C  4  s      Cor( 1s)     1.99999     -10.17511
  95    C  4  s      Val( 2s)     0.97441      -0.12320
  96    C  4  s      Ryd( 3s)     0.00067       1.54843
  97    C  4  s      Ryd( 4s)     0.00002       2.79905
  98    C  4  s      Ryd( 5s)     0.00000      20.17502
  99    C  4  px     Val( 2p)     1.15814      -0.04422
 100    C  4  px     Ryd( 3p)     0.00427       1.13369
 101    C  4  px     Ryd( 4p)     0.00013       1.96033
 102    C  4  py     Val( 2p)     1.04439      -0.01037
 103    C  4  py     Ryd( 3p)     0.00325       0.92608
 104    C  4  py     Ryd( 4p)     0.00014       1.88953
 105    C  4  pz     Val( 2p)     1.00918      -0.10444
 106    C  4  pz     Ryd( 3p)     0.00172       0.70209
 107    C  4  pz     Ryd( 4p)     0.00018       1.28830
 108    C  4  dxy    Ryd( 3d)     0.00158       2.09990
 109    C  4  dxy    Ryd( 4d)     0.00025       3.86435
 110    C  4  dxz    Ryd( 3d)     0.00045       1.65365
 111    C  4  dxz    Ryd( 4d)     0.00010       2.93716
 112    C  4  dyz    Ryd( 3d)     0.00027       1.65159
 113    C  4  dyz    Ryd( 4d)     0.00017       3.14608
 114    C  4  dx2y2  Ryd( 4d)     0.00071       2.13058
 115    C  4  dx2y2  Ryd( 3d)     0.00076       3.90016
 116    C  4  dz2    Ryd( 3d)     0.00104       1.91020
 117    C  4  dz2    Ryd( 4d)     0.00003       3.32380
 118    C  4  f(0)   Ryd( 4f)     0.00040       3.28241
 119    C  4  f(c1)  Ryd( 4f)     0.00035       3.27926
 120    C  4  f(s1)  Ryd( 4f)     0.00028       3.43953
 121    C  4  f(c2)  Ryd( 4f)     0.00013       3.36615
 122    C  4  f(s2)  Ryd( 4f)     0.00007       3.36869
 123    C  4  f(c3)  Ryd( 4f)     0.00055       3.94433
 124    C  4  f(s3)  Ryd( 4f)     0.00017       3.66698

 125    C  5  s      Cor( 1s)     1.99999     -10.17398
 126    C  5  s      Val( 2s)     0.97313      -0.12089
 127    C  5  s      Ryd( 3s)     0.00101       1.64819
 128    C  5  s      Ryd( 4s)     0.00008       1.50776
 129    C  5  s      Ryd( 5s)     0.00000      20.69511
 130    C  5  px     Val( 2p)     1.07832      -0.02491
 131    C  5  px     Ryd( 3p)     0.00274       0.94804
 132    C  5  px     Ryd( 4p)     0.00022       1.93535
 133    C  5  py     Val( 2p)     1.13218      -0.03606
 134    C  5  py     Ryd( 3p)     0.00331       1.07454
 135    C  5  py     Ryd( 4p)     0.00023       1.99809
 136    C  5  pz     Val( 2p)     1.03907      -0.10852
 137    C  5  pz     Ryd( 3p)     0.00206       0.66361
 138    C  5  pz     Ryd( 4p)     0.00017       1.36011
 139    C  5  dxy    Ryd( 3d)     0.00086       2.28833
 140    C  5  dxy    Ryd( 4d)     0.00061       3.93381
 141    C  5  dxz    Ryd( 3d)     0.00051       1.66032
 142    C  5  dxz    Ryd( 4d)     0.00009       3.19504
 143    C  5  dyz    Ryd( 3d)     0.00030       1.59506
 144    C  5  dyz    Ryd( 4d)     0.00015       3.07680
 145    C  5  dx2y2  Ryd( 3d)     0.00179       2.07287
 146    C  5  dx2y2  Ryd( 4d)     0.00032       3.93532
 147    C  5  dz2    Ryd( 3d)     0.00122       1.94301
 148    C  5  dz2    Ryd( 4d)     0.00002       3.40920
 149    C  5  f(0)   Ryd( 4f)     0.00046       3.26454
 150    C  5  f(c1)  Ryd( 4f)     0.00033       3.38217
 151    C  5  f(s1)  Ryd( 4f)     0.00035       3.33029
 152    C  5  f(c2)  Ryd( 4f)     0.00007       3.34382
 153    C  5  f(s2)  Ryd( 4f)     0.00012       3.35363
 154    C  5  f(c3)  Ryd( 4f)     0.00061       3.95234
 155    C  5  f(s3)  Ryd( 4f)     0.00018       3.70019

 156    C  6  s      Cor( 1s)     1.99999     -10.20842
 157    C  6  s      Val( 2s)     0.87706      -0.08963
 158    C  6  s      Ryd( 3s)     0.00106       1.44489
 159    C  6  s      Ryd( 4s)     0.00015       1.72317
 160    C  6  s      Ryd( 5s)     0.00000      20.88861
 161    C  6  px     Val( 2p)     1.02512      -0.01010
 162    C  6  px     Ryd( 3p)     0.00246       1.00834
 163    C  6  px     Ryd( 4p)     0.00057       2.08932
 164    C  6  py     Val( 2p)     0.92329      -0.00018
 165    C  6  py     Ryd( 3p)     0.00545       1.08457
 166    C  6  py     Ryd( 4p)     0.00032       1.93584
 167    C  6  pz     Val( 2p)     1.00675      -0.10508
 168    C  6  pz     Ryd( 3p)     0.00282       0.73371
 169    C  6  pz     Ryd( 4p)     0.00017       1.50035
 170    C  6  dxy    Ryd( 3d)     0.00102       3.04230
 171    C  6  dxy    Ryd( 4d)     0.00100       4.27761
 172    C  6  dxz    Ryd( 3d)     0.00044       1.92810
 173    C  6  dxz    Ryd( 4d)     0.00025       3.37174
 174    C  6  dyz    Ryd( 3d)     0.00038       1.83195
 175    C  6  dyz    Ryd( 4d)     0.00026       3.35832
 176    C  6  dx2y2  Ryd( 3d)     0.00096       3.06363
 177    C  6  dx2y2  Ryd( 4d)     0.00085       4.08567
 178    C  6  dz2    Ryd( 3d)     0.00058       3.01480
 179    C  6  dz2    Ryd( 4d)     0.00013       3.57797
 180    C  6  f(0)   Ryd( 4f)     0.00036       3.39403
 181    C  6  f(c1)  Ryd( 4f)     0.00029       3.42800
 182    C  6  f(s1)  Ryd( 4f)     0.00025       3.42982
 183    C  6  f(c2)  Ryd( 4f)     0.00011       3.45684
 184    C  6  f(s2)  Ryd( 4f)     0.00010       3.45153
 185    C  6  f(c3)  Ryd( 4f)     0.00057       3.92542
 186    C  6  f(s3)  Ryd( 4f)     0.00014       3.87315

 187    H  7  s      Val( 1s)     0.79322       0.04757
 188    H  7  s      Ryd( 2s)     0.00053       0.80982
 189    H  7  s      Ryd( 3s)     0.00009       1.90635
 190    H  7  px     Ryd( 2p)     0.00027       2.64909
 191    H  7  py     Ryd( 2p)     0.00053       2.79573
 192    H  7  pz     Ryd( 2p)     0.00016       2.17464

 193    H  8  s      Val( 1s)     0.78907       0.05038
 194    H  8  s      Ryd( 2s)     0.00032       0.65561
 195    H  8  s      Ryd( 3s)     0.00008       2.03367
 196    H  8  px     Ryd( 2p)     0.00018       2.60925
 197    H  8  py     Ryd( 2p)     0.00066       2.78331
 198    H  8  pz     Ryd( 2p)     0.00012       2.15105

 199    H  9  s      Val( 1s)     0.79083       0.04853
 200    H  9  s      Ryd( 2s)     0.00039       0.65544
 201    H  9  s      Ryd( 3s)     0.00009       2.01555
 202    H  9  px     Ryd( 2p)     0.00080       2.79573
 203    H  9  py     Ryd( 2p)     0.00006       2.54461
 204    H  9  pz     Ryd( 2p)     0.00016       2.15694

 205    H 10  s      Val( 1s)     0.78855       0.04713
 206    H 10  s      Ryd( 2s)     0.00104       0.72583
 207    H 10  s      Ryd( 3s)     0.00008       1.97483
 208    H 10  px     Ryd( 2p)     0.00028       2.70480
 209    H 10  py     Ryd( 2p)     0.00052       2.78660
 210    H 10  pz     Ryd( 2p)     0.00018       2.18893

 211    N 11  s      Cor( 1s)     1.99999     -14.32428
 212    N 11  s      Val( 2s)     1.25391      -0.41010
 213    N 11  s      Ryd( 3s)     0.00109       1.53927
 214    N 11  s      Ryd( 4s)     0.00007       5.60318
 215    N 11  s      Ryd( 5s)     0.00000      25.36659
 216    N 11  px     Val( 2p)     1.67443      -0.21692
 217    N 11  px     Ryd( 3p)     0.00798       0.76464
 218    N 11  px     Ryd( 4p)     0.00025       2.69235
 219    N 11  py     Val( 2p)     1.22696      -0.17061
 220    N 11  py     Ryd( 3p)     0.00252       0.81768
 221    N 11  py     Ryd( 4p)     0.00012       3.07239
 222    N 11  pz     Val( 2p)     1.26017      -0.18049
 223    N 11  pz     Ryd( 3p)     0.00293       0.81539
 224    N 11  pz     Ryd( 4p)     0.00012       2.81725
 225    N 11  dxy    Ryd( 3d)     0.00244       2.18799
 226    N 11  dxy    Ryd( 4d)     0.00010       5.17318
 227    N 11  dxz    Ryd( 3d)     0.00132       1.90408
 228    N 11  dxz    Ryd( 4d)     0.00014       4.94683
 229    N 11  dyz    Ryd( 3d)     0.00108       2.19280
 230    N 11  dyz    Ryd( 4d)     0.00016       5.08010
 231    N 11  dx2y2  Ryd( 3d)     0.00130       2.55282
 232    N 11  dx2y2  Ryd( 4d)     0.00017       5.14357
 233    N 11  dz2    Ryd( 3d)     0.00181       2.05730
 234    N 11  dz2    Ryd( 4d)     0.00014       5.15914
 235    N 11  f(0)   Ryd( 4f)     0.00008       4.77381
 236    N 11  f(c1)  Ryd( 4f)     0.00007       4.58596
 237    N 11  f(s1)  Ryd( 4f)     0.00014       4.99866
 238    N 11  f(c2)  Ryd( 4f)     0.00011       4.60015
 239    N 11  f(s2)  Ryd( 4f)     0.00008       4.71736
 240    N 11  f(c3)  Ryd( 4f)     0.00018       4.65549
 241    N 11  f(s3)  Ryd( 4f)     0.00009       4.84972

 242    C 12  s      Cor( 1s)     1.99999     -10.19813
 243    C 12  s      Val( 2s)     1.08344      -0.21577
 244    C 12  s      Ryd( 3s)     0.00079       1.43145
 245    C 12  s      Ryd( 4s)     0.00003       1.72019
 246    C 12  s      Ryd( 5s)     0.00000      21.62722
 247    C 12  px     Val( 2p)     1.15799      -0.10356
 248    C 12  px     Ryd( 3p)     0.00134       0.68157
 249    C 12  px     Ryd( 4p)     0.00030       1.52504
 250    C 12  py     Val( 2p)     1.06677      -0.09235
 251    C 12  py     Ryd( 3p)     0.00145       0.71189
 252    C 12  py     Ryd( 4p)     0.00014       1.58527
 253    C 12  pz     Val( 2p)     1.07685      -0.09700
 254    C 12  pz     Ryd( 3p)     0.00157       0.65570
 255    C 12  pz     Ryd( 4p)     0.00009       1.54691
 256    C 12  dxy    Ryd( 3d)     0.00159       2.21844
 257    C 12  dxy    Ryd( 4d)     0.00007       2.97291
 258    C 12  dxz    Ryd( 3d)     0.00059       2.18144
 259    C 12  dxz    Ryd( 4d)     0.00007       2.55161
 260    C 12  dyz    Ryd( 3d)     0.00099       2.70405
 261    C 12  dyz    Ryd( 4d)     0.00006       2.87004
 262    C 12  dx2y2  Ryd( 3d)     0.00059       2.11450
 263    C 12  dx2y2  Ryd( 4d)     0.00005       2.61647
 264    C 12  dz2    Ryd( 3d)     0.00120       2.05403
 265    C 12  dz2    Ryd( 4d)     0.00006       2.84960
 266    C 12  f(0)   Ryd( 4f)     0.00011       3.47116
 267    C 12  f(c1)  Ryd( 4f)     0.00003       3.39738
 268    C 12  f(s1)  Ryd( 4f)     0.00031       3.73228
 269    C 12  f(c2)  Ryd( 4f)     0.00003       3.42696
 270    C 12  f(s2)  Ryd( 4f)     0.00017       3.42134
 271    C 12  f(c3)  Ryd( 4f)     0.00014       3.46482
 272    C 12  f(s3)  Ryd( 4f)     0.00015       3.53850

 273    H 13  s      Val( 1s)     0.83522       0.00829
 274    H 13  s      Ryd( 2s)     0.00310       0.53925
 275    H 13  s      Ryd( 3s)     0.00004       2.10820
 276    H 13  px     Ryd( 2p)     0.00057       2.63540
 277    H 13  py     Ryd( 2p)     0.00020       2.32055
 278    H 13  pz     Ryd( 2p)     0.00014       2.19746

 279    H 14  s      Val( 1s)     0.80182       0.02352
 280    H 14  s      Ryd( 2s)     0.00069       0.70485
 281    H 14  s      Ryd( 3s)     0.00004       1.80093
 282    H 14  px     Ryd( 2p)     0.00037       2.40742
 283    H 14  py     Ryd( 2p)     0.00046       2.59563
 284    H 14  pz     Ryd( 2p)     0.00009       2.20906

 285    H 15  s      Val( 1s)     0.79536       0.02651
 286    H 15  s      Ryd( 2s)     0.00051       0.51804
 287    H 15  s      Ryd( 3s)     0.00005       2.04667
 288    H 15  px     Ryd( 2p)     0.00008       2.13936
 289    H 15  py     Ryd( 2p)     0.00019       2.27890
 290    H 15  pz     Ryd( 2p)     0.00064       2.76426

 291    C 16  s      Cor( 1s)     1.99999     -10.19748
 292    C 16  s      Val( 2s)     1.08790      -0.21652
 293    C 16  s      Ryd( 3s)     0.00094       1.32841
 294    C 16  s      Ryd( 4s)     0.00004       1.87693
 295    C 16  s      Ryd( 5s)     0.00000      21.63482
 296    C 16  px     Val( 2p)     1.18921      -0.10939
 297    C 16  px     Ryd( 3p)     0.00134       0.69161
 298    C 16  px     Ryd( 4p)     0.00025       1.50963
 299    C 16  py     Val( 2p)     1.15722      -0.10543
 300    C 16  py     Ryd( 3p)     0.00137       0.67529
 301    C 16  py     Ryd( 4p)     0.00011       1.53172
 302    C 16  pz     Val( 2p)     0.94532      -0.07517
 303    C 16  pz     Ryd( 3p)     0.00115       0.63144
 304    C 16  pz     Ryd( 4p)     0.00020       1.53664
 305    C 16  dxy    Ryd( 3d)     0.00152       2.01242
 306    C 16  dxy    Ryd( 4d)     0.00004       2.92984
 307    C 16  dxz    Ryd( 3d)     0.00111       2.03135
 308    C 16  dxz    Ryd( 4d)     0.00004       2.63250
 309    C 16  dyz    Ryd( 3d)     0.00095       2.43212
 310    C 16  dyz    Ryd( 4d)     0.00008       2.94798
 311    C 16  dx2y2  Ryd( 3d)     0.00065       1.96356
 312    C 16  dx2y2  Ryd( 4d)     0.00005       2.64300
 313    C 16  dz2    Ryd( 3d)     0.00077       2.61500
 314    C 16  dz2    Ryd( 4d)     0.00010       2.89651
 315    C 16  f(0)   Ryd( 4f)     0.00016       3.60361
 316    C 16  f(c1)  Ryd( 4f)     0.00003       3.48300
 317    C 16  f(s1)  Ryd( 4f)     0.00028       3.59852
 318    C 16  f(c2)  Ryd( 4f)     0.00002       3.49187
 319    C 16  f(s2)  Ryd( 4f)     0.00018       3.52428
 320    C 16  f(c3)  Ryd( 4f)     0.00015       3.40533
 321    C 16  f(s3)  Ryd( 4f)     0.00012       3.35805

 322    H 17  s      Val( 1s)     0.83027       0.01316
 323    H 17  s      Ryd( 2s)     0.00331       0.51419
 324    H 17  s      Ryd( 3s)     0.00003       2.07002
 325    H 17  px     Ryd( 2p)     0.00057       2.58119
 326    H 17  py     Ryd( 2p)     0.00014       2.23482
 327    H 17  pz     Ryd( 2p)     0.00020       2.33735

 328    H 18  s      Val( 1s)     0.80539       0.02310
 329    H 18  s      Ryd( 2s)     0.00070       0.63828
 330    H 18  s      Ryd( 3s)     0.00003       1.85023
 331    H 18  px     Ryd( 2p)     0.00038       2.42252
 332    H 18  py     Ryd( 2p)     0.00047       2.53679
 333    H 18  pz     Ryd( 2p)     0.00010       2.24894

 334    H 19  s      Val( 1s)     0.79603       0.03190
 335    H 19  s      Ryd( 2s)     0.00047       0.71225
 336    H 19  s      Ryd( 3s)     0.00005       1.93950
 337    H 19  px     Ryd( 2p)     0.00016       2.23609
 338    H 19  py     Ryd( 2p)     0.00039       2.46629
 339    H 19  pz     Ryd( 2p)     0.00037       2.58191

 340    C 20  s      Cor( 1s)     1.99999     -10.17572
 341    C 20  s      Val( 2s)     1.04134      -0.18468
 342    C 20  s      Ryd( 3s)     0.00119       1.65313
 343    C 20  s      Ryd( 4s)     0.00006       1.99030
 344    C 20  s      Ryd( 5s)     0.00000      21.02392
 345    C 20  px     Val( 2p)     1.04289      -0.06400
 346    C 20  px     Ryd( 3p)     0.00381       0.80509
 347    C 20  px     Ryd( 4p)     0.00018       1.83986
 348    C 20  py     Val( 2p)     1.21180      -0.09554
 349    C 20  py     Ryd( 3p)     0.00363       1.02582
 350    C 20  py     Ryd( 4p)     0.00014       1.68231
 351    C 20  pz     Val( 2p)     1.09338      -0.08020
 352    C 20  pz     Ryd( 3p)     0.00099       0.64552
 353    C 20  pz     Ryd( 4p)     0.00020       1.61907
 354    C 20  dxy    Ryd( 3d)     0.00029       2.03436
 355    C 20  dxy    Ryd( 4d)     0.00029       3.19189
 356    C 20  dxz    Ryd( 3d)     0.00056       2.07109
 357    C 20  dxz    Ryd( 4d)     0.00022       3.41132
 358    C 20  dyz    Ryd( 3d)     0.00098       1.87558
 359    C 20  dyz    Ryd( 4d)     0.00018       3.31913
 360    C 20  dx2y2  Ryd( 3d)     0.00155       2.46617
 361    C 20  dx2y2  Ryd( 4d)     0.00013       3.71415
 362    C 20  dz2    Ryd( 3d)     0.00079       2.10509
 363    C 20  dz2    Ryd( 4d)     0.00014       3.34956
 364    C 20  f(0)   Ryd( 4f)     0.00007       3.56564
 365    C 20  f(c1)  Ryd( 4f)     0.00020       3.62759
 366    C 20  f(s1)  Ryd( 4f)     0.00010       3.43946
 367    C 20  f(c2)  Ryd( 4f)     0.00024       3.73876
 368    C 20  f(s2)  Ryd( 4f)     0.00003       3.53119
 369    C 20  f(c3)  Ryd( 4f)     0.00026       3.58796
 370    C 20  f(s3)  Ryd( 4f)     0.00005       3.61547

 371    H 21  s      Val( 1s)     0.78484       0.04082
 372    H 21  s      Ryd( 2s)     0.00086       0.70950
 373    H 21  s      Ryd( 3s)     0.00003       1.96898
 374    H 21  px     Ryd( 2p)     0.00021       2.52516
 375    H 21  py     Ryd( 2p)     0.00061       2.64073
 376    H 21  pz     Ryd( 2p)     0.00023       2.43441

 377    H 22  s      Val( 1s)     0.77848       0.04644
 378    H 22  s      Ryd( 2s)     0.00130       0.66968
 379    H 22  s      Ryd( 3s)     0.00004       2.11601
 380    H 22  px     Ryd( 2p)     0.00020       2.50369
 381    H 22  py     Ryd( 2p)     0.00043       2.50249
 382    H 22  pz     Ryd( 2p)     0.00046       2.70169

 383    C 23  s      Cor( 1s)     1.99999     -10.18260
 384    C 23  s      Val( 2s)     1.08826      -0.22398
 385    C 23  s      Ryd( 3s)     0.00078       1.26254
 386    C 23  s      Ryd( 4s)     0.00004       2.48495
 387    C 23  s      Ryd( 5s)     0.00001      20.21343
 388    C 23  px     Val( 2p)     1.06609      -0.09065
 389    C 23  px     Ryd( 3p)     0.00119       0.64476
 390    C 23  px     Ryd( 4p)     0.00022       1.81533
 391    C 23  py     Val( 2p)     1.20528      -0.11655
 392    C 23  py     Ryd( 3p)     0.00078       0.76865
 393    C 23  py     Ryd( 4p)     0.00007       1.56799
 394    C 23  pz     Val( 2p)     1.12148      -0.09414
 395    C 23  pz     Ryd( 3p)     0.00161       0.60666
 396    C 23  pz     Ryd( 4p)     0.00025       1.68217
 397    C 23  dxy    Ryd( 3d)     0.00019       1.70508
 398    C 23  dxy    Ryd( 4d)     0.00012       3.04011
 399    C 23  dxz    Ryd( 3d)     0.00053       1.99644
 400    C 23  dxz    Ryd( 4d)     0.00021       3.48973
 401    C 23  dyz    Ryd( 3d)     0.00160       1.81397
 402    C 23  dyz    Ryd( 4d)     0.00009       3.39048
 403    C 23  dx2y2  Ryd( 3d)     0.00182       2.06907
 404    C 23  dx2y2  Ryd( 4d)     0.00004       3.55438
 405    C 23  dz2    Ryd( 3d)     0.00111       1.96694
 406    C 23  dz2    Ryd( 4d)     0.00013       3.31603
 407    C 23  f(0)   Ryd( 4f)     0.00010       3.52356
 408    C 23  f(c1)  Ryd( 4f)     0.00040       3.50600
 409    C 23  f(s1)  Ryd( 4f)     0.00014       3.43068
 410    C 23  f(c2)  Ryd( 4f)     0.00029       3.70088
 411    C 23  f(s2)  Ryd( 4f)     0.00004       3.41997
 412    C 23  f(c3)  Ryd( 4f)     0.00026       3.55499
 413    C 23  f(s3)  Ryd( 4f)     0.00001       3.37644

 414    H 24  s      Val( 1s)     0.75635       0.02595
 415    H 24  s      Ryd( 2s)     0.00086       0.86854
 416    H 24  s      Ryd( 3s)     0.00004       1.92904
 417    H 24  px     Ryd( 2p)     0.00024       2.42997
 418    H 24  py     Ryd( 2p)     0.00056       2.64516
 419    H 24  pz     Ryd( 2p)     0.00019       2.48290

 420    H 25  s      Val( 1s)     0.77686       0.01267
 421    H 25  s      Ryd( 2s)     0.00067       0.69736
 422    H 25  s      Ryd( 3s)     0.00002       1.90476
 423    H 25  px     Ryd( 2p)     0.00015       2.38393
 424    H 25  py     Ryd( 2p)     0.00040       2.47499
 425    H 25  pz     Ryd( 2p)     0.00045       2.60077

 426    C 26  s      Cor( 1s)     1.99999     -10.26136
 427    C 26  s      Val( 2s)     0.95410      -0.17827
 428    C 26  s      Ryd( 3s)     0.00932       1.21562
 429    C 26  s      Ryd( 4s)     0.00006       1.02877
 430    C 26  s      Ryd( 5s)     0.00001      22.15519
 431    C 26  px     Val( 2p)     0.95745      -0.03208
 432    C 26  px     Ryd( 3p)     0.00572       1.06148
 433    C 26  px     Ryd( 4p)     0.00009       1.17867
 434    C 26  py     Val( 2p)     0.70024      -0.12630
 435    C 26  py     Ryd( 3p)     0.00060       0.91166
 436    C 26  py     Ryd( 4p)     0.00016       0.81352
 437    C 26  pz     Val( 2p)     0.91706      -0.02106
 438    C 26  pz     Ryd( 3p)     0.00872       1.19343
 439    C 26  pz     Ryd( 4p)     0.00029       1.12392
 440    C 26  dxy    Ryd( 3d)     0.00043       2.61487
 441    C 26  dxy    Ryd( 4d)     0.00002       1.93844
 442    C 26  dxz    Ryd( 3d)     0.00114       2.91889
 443    C 26  dxz    Ryd( 4d)     0.00053       2.67153
 444    C 26  dyz    Ryd( 3d)     0.00092       2.65673
 445    C 26  dyz    Ryd( 4d)     0.00016       1.77513
 446    C 26  dx2y2  Ryd( 3d)     0.00072       3.00592
 447    C 26  dx2y2  Ryd( 4d)     0.00009       2.21874
 448    C 26  dz2    Ryd( 3d)     0.00156       2.97278
 449    C 26  dz2    Ryd( 4d)     0.00039       2.29620
 450    C 26  f(0)   Ryd( 4f)     0.00012       3.51655
 451    C 26  f(c1)  Ryd( 4f)     0.00046       3.85195
 452    C 26  f(s1)  Ryd( 4f)     0.00007       3.18947
 453    C 26  f(c2)  Ryd( 4f)     0.00009       3.47029
 454    C 26  f(s2)  Ryd( 4f)     0.00004       3.30117
 455    C 26  f(c3)  Ryd( 4f)     0.00023       3.24463
 456    C 26  f(s3)  Ryd( 4f)     0.00008       3.28485

 457    H 27  s      Val( 1s)     0.89907      -0.03550
 458    H 27  s      Ryd( 2s)     0.00308       0.45973
 459    H 27  s      Ryd( 3s)     0.00009       2.13586
 460    H 27  px     Ryd( 2p)     0.00041       2.47596
 461    H 27  py     Ryd( 2p)     0.00007       2.05127
 462    H 27  pz     Ryd( 2p)     0.00062       2.68214

 463    O 28  s      Cor( 1s)     1.99999     -19.12640
 464    O 28  s      Val( 2s)     1.70285      -0.68351
 465    O 28  s      Ryd( 3s)     0.00043       1.35665
 466    O 28  s      Ryd( 4s)     0.00002       4.55836
 467    O 28  s      Ryd( 5s)     0.00000      41.84668
 468    O 28  px     Val( 2p)     1.79336      -0.27362
 469    O 28  px     Ryd( 3p)     0.00259       0.68564
 470    O 28  px     Ryd( 4p)     0.00008       3.29710
 471    O 28  py     Val( 2p)     1.36235      -0.25768
 472    O 28  py     Ryd( 3p)     0.00063       0.58441
 473    O 28  py     Ryd( 4p)     0.00000       2.89738
 474    O 28  pz     Val( 2p)     1.63444      -0.27827
 475    O 28  pz     Ryd( 3p)     0.00119       0.62390
 476    O 28  pz     Ryd( 4p)     0.00014       3.47527
 477    O 28  dxy    Ryd( 3d)     0.00125       1.66038
 478    O 28  dxy    Ryd( 4d)     0.00000       6.35073
 479    O 28  dxz    Ryd( 3d)     0.00656       2.01588
 480    O 28  dxz    Ryd( 4d)     0.00001       6.62805
 481    O 28  dyz    Ryd( 3d)     0.00352       1.77266
 482    O 28  dyz    Ryd( 4d)     0.00001       6.44995
 483    O 28  dx2y2  Ryd( 3d)     0.00126       1.73181
 484    O 28  dx2y2  Ryd( 4d)     0.00001       6.47425
 485    O 28  dz2    Ryd( 3d)     0.00626       2.06456
 486    O 28  dz2    Ryd( 4d)     0.00004       6.68569
 487    O 28  f(0)   Ryd( 4f)     0.00013       5.96006
 488    O 28  f(c1)  Ryd( 4f)     0.00013       5.97511
 489    O 28  f(s1)  Ryd( 4f)     0.00006       5.66816
 490    O 28  f(c2)  Ryd( 4f)     0.00008       5.65211
 491    O 28  f(s2)  Ryd( 4f)     0.00009       5.58333
 492    O 28  f(c3)  Ryd( 4f)     0.00000       5.29468
 493    O 28  f(s3)  Ryd( 4f)     0.00000       5.27569

     Population inversion found on atom  C  4
     Population inversion found on atom  C  5
     Population inversion found on atom  C 26


 Summary of Natural Population Analysis:

                                     Natural Population
             Natural    ---------------------------------------------
  Atom No    Charge        Core      Valence    Rydberg      Total
 --------------------------------------------------------------------
    C  1   -0.02979      1.99999     4.01039    0.01941     6.02979
    C  2   -0.19793      1.99999     4.18039    0.01755     6.19793
    C  3   -0.21507      1.99999     4.19744    0.01764     6.21507
    C  4   -0.20379      1.99999     4.18612    0.01768     6.20379
    C  5   -0.24050      1.99999     4.22271    0.01781     6.24050
    C  6    0.14710      1.99999     3.83222    0.02070     5.85290
    H  7    0.20521      0.00000     0.79322    0.00158     0.79479
    H  8    0.20957      0.00000     0.78907    0.00137     0.79043
    H  9    0.20768      0.00000     0.79083    0.00148     0.79232
    H 10    0.20935      0.00000     0.78855    0.00210     0.79065
    N 11   -0.43997      1.99999     5.41546    0.02452     7.43997
    C 12   -0.39692      1.99999     4.38504    0.01189     6.39692
    H 13    0.16073      0.00000     0.83522    0.00406     0.83927
    H 14    0.19654      0.00000     0.80182    0.00165     0.80346
    H 15    0.20318      0.00000     0.79536    0.00147     0.79682
    C 16   -0.39132      1.99999     4.37966    0.01167     6.39132
    H 17    0.16548      0.00000     0.83027    0.00425     0.83452
    H 18    0.19293      0.00000     0.80539    0.00169     0.80707
    H 19    0.20254      0.00000     0.79603    0.00143     0.79746
    C 20   -0.40569      1.99999     4.38940    0.01630     6.40569
    H 21    0.21321      0.00000     0.78484    0.00194     0.78679
    H 22    0.21910      0.00000     0.77848    0.00243     0.78090
    C 23   -0.49314      1.99999     4.48112    0.01202     6.49314
    H 24    0.24175      0.00000     0.75635    0.00190     0.75825
    H 25    0.22144      0.00000     0.77686    0.00170     0.77856
    C 26    0.43915      1.99999     3.52884    0.03202     5.56085
    H 27    0.09667      0.00000     0.89907    0.00426     0.90333
    O 28   -0.51751      1.99999     6.49299    0.02452     8.51751
 ====================================================================
 * Total *  0.00000     25.99986    69.72312    0.27703    96.00000

                                 Natural Population
 ---------------------------------------------------------
   Core                      25.99986 ( 99.9994% of   26)
   Valence                   69.72312 ( 99.6045% of   70)
   Natural Minimal Basis     95.72297 ( 99.7114% of   96)
   Natural Rydberg Basis      0.27703 (  0.2886% of   96)
 ---------------------------------------------------------

    Atom No         Natural Electron Configuration
 ----------------------------------------------------------------------------
      C  1      [core]2s( 0.92)2p( 3.09)3p( 0.01)
      C  2      [core]2s( 0.97)2p( 3.21)3p( 0.01)
      C  3      [core]2s( 0.97)2p( 3.22)3p( 0.01)
      C  4      [core]2s( 0.97)2p( 3.21)3p( 0.01)
      C  5      [core]2s( 0.97)2p( 3.25)3p( 0.01)
      C  6      [core]2s( 0.88)2p( 2.96)3p( 0.01)
      H  7            1s( 0.79)
      H  8            1s( 0.79)
      H  9            1s( 0.79)
      H 10            1s( 0.79)
      N 11      [core]2s( 1.25)2p( 4.16)3p( 0.01)3d( 0.01)
      C 12      [core]2s( 1.08)2p( 3.30)
      H 13            1s( 0.84)
      H 14            1s( 0.80)
      H 15            1s( 0.80)
      C 16      [core]2s( 1.09)2p( 3.29)3d( 0.01)
      H 17            1s( 0.83)
      H 18            1s( 0.81)
      H 19            1s( 0.80)
      C 20      [core]2s( 1.04)2p( 3.35)3p( 0.01)
      H 21            1s( 0.78)
      H 22            1s( 0.78)
      C 23      [core]2s( 1.09)2p( 3.39)3d( 0.01)
      H 24            1s( 0.76)
      H 25            1s( 0.78)
      C 26      [core]2s( 0.95)2p( 2.57)3s( 0.01)3p( 0.02)
      H 27            1s( 0.90)
      O 28      [core]2s( 1.70)2p( 4.79)3d( 0.02)


 NATURAL BOND ORBITAL ANALYSIS:

                            Occupancies       Lewis Structure    Low   High
         Max    Occ     -------------------  -----------------   occ   occ
  Cycle  Ctr   Thresh    Lewis   non-Lewis     CR  BD  nC  LP    (L)   (NL)
 ============================================================================
    1     2     1.90    90.09202   5.90798     13  27   0   8     7      6
    2     2     1.89    90.17417   5.82583     13  28   0   7     6      6
    3     2     1.88    90.17417   5.82583     13  28   0   7     6      6
    4     2     1.87    92.21559   3.78441     13  30   0   5     3      3
    5     2     1.83    92.20164   3.79836     13  29   0   6     3      3
    6     2     1.67    92.86638   3.13362     13  30   0   5     2      3
    7     2     1.66    94.16762   1.83238     13  32   0   3     0      3
    8     2     1.62    94.16762   1.83238     13  32   0   3     0      3
    9     2     1.66    94.16762   1.83238     13  32   0   3     0      3
 ----------------------------------------------------------------------------

 Structure accepted: No low occupancy Lewis orbitals

 -------------------------------------------------------
   Core                     25.99986 ( 99.999% of  26)
   Valence Lewis            68.16777 ( 97.383% of  70)
  ==================      =============================
   Total Lewis              94.16762 ( 98.091% of  96)
  -----------------------------------------------------
   Valence non-Lewis         1.68123 (  1.751% of  96)
   Rydberg non-Lewis         0.15114 (  0.157% of  96)
  ==================      =============================
   Total non-Lewis           1.83238 (  1.909% of  96)
 -------------------------------------------------------


     (Occupancy)   Bond orbital / Coefficients / Hybrids
[...]
  145.  0.00043     2.10812   85.   RY ( 5) C  1
  146.  0.00041     3.04808  217.   RY ( 7) C  6
  147.  0.00040     2.99526  111.   RY ( 5) C  2
  148.  0.00039     2.22267  137.   RY ( 5) C  3
  149.  0.00039     3.25336  163.   RY ( 5) C  4
  150.  0.00039     0.65280  247.   RY ( 1) H  9
  151.  0.00036     3.17799   86.   RY ( 6) C  1
  152.  0.00035     2.89621  112.   RY ( 6) C  2
  153.  0.00035     3.14101  164.   RY ( 6) C  4
  154.  0.00032     2.93609  190.   RY ( 6) C  5
  155.  0.00032     0.65111  242.   RY ( 1) H  8
  156.  0.00032     2.27510  405.   RY ( 5) C 23
  157.  0.00032     3.12053  261.   RY ( 5) N 11
  158.  0.00031     1.86743  369.   RY ( 5) C 20
  159.  0.00031     2.98734  138.   RY ( 6) C  3
  160.  0.00030     3.10163   87.   RY ( 7) C  1
  161.  0.00030     2.27020  218.   RY ( 8) C  6
  162.  0.00029     3.03044  191.   RY ( 7) C  5
  163.  0.00029     1.59247  470.   RY ( 3) O 28
  164.  0.00028     3.87521  262.   RY ( 6) N 11
  165.  0.00027     1.77885  286.   RY ( 4) C 12
  166.  0.00025     2.49826  370.   RY ( 6) C 20
  167.  0.00024     2.30438  219.   RY ( 9) C  6
  168.  0.00024     2.31312  371.   RY ( 7) C 20
  169.  0.00023     2.65042   88.   RY ( 8) C  1
  170.  0.00023     1.85146  327.   RY ( 4) C 16
  171.  0.00018     2.28552   89.   RY ( 9) C  1
  172.  0.00018     2.65168   90.   RY (10) C  1
  173.  0.00017     1.75041  287.   RY ( 5) C 12
  174.  0.00015     3.12702  263.   RY ( 7) N 11
  175.  0.00015     2.35531  406.   RY ( 6) C 23
  176.  0.00015     2.32350  428.   RY ( 2) H 24
  177.  0.00014     2.49049  220.   RY (10) C  6
  178.  0.00014     2.13392  253.   RY ( 2) H 10
  179.  0.00014     2.11970  238.   RY ( 2) H  7
  180.  0.00014     1.44245  328.   RY ( 5) C 16
  181.  0.00013     1.90976  407.   RY ( 7) C 23
  182.  0.00013     2.40119   91.   RY (11) C  1
  183.  0.00013     1.99145  113.   RY ( 7) C  2
  184.  0.00013     2.43556  397.   RY ( 2) H 22
  185.  0.00013     2.12418  243.   RY ( 2) H  8
  186.  0.00013     2.10281  248.   RY ( 2) H  9
  187.  0.00012     1.61116  329.   RY ( 6) C 16
  188.  0.00012     2.11255  139.   RY ( 7) C  3
  189.  0.00012     2.22582  361.   RY ( 2) H 19
  190.  0.00012     2.07660  372.   RY ( 8) C 20
  191.  0.00012     3.46910  264.   RY ( 8) N 11
  192.  0.00012     2.45401  392.   RY ( 2) H 21
  193.  0.00012     2.28735  464.   RY ( 2) H 27
  194.  0.00011     2.07439  221.   RY (11) C  6
  195.  0.00011     0.92892  441.   RY ( 5) C 26
  196.  0.00011     2.13061  222.   RY (12) C  6
  197.  0.00011     1.39915  192.   RY ( 8) C  5
  198.  0.00011     2.17279  408.   RY ( 8) C 23
  199.  0.00010     2.37971  433.   RY ( 2) H 25
  200.  0.00010     1.83098  373.   RY ( 9) C 20
  201.  0.00010     2.67035  265.   RY ( 9) N 11
  202.  0.00010     1.41015  288.   RY ( 6) C 12
  203.  0.00010     2.14141  315.   RY ( 2) H 14
  204.  0.00010     2.93780  409.   RY ( 9) C 23
  205.  0.00009     2.34416  165.   RY ( 7) C  4
  206.  0.00009     2.10569  320.   RY ( 2) H 15
  207.  0.00009     1.91561  239.   RY ( 3) H  7
  208.  0.00009     2.17457  356.   RY ( 2) H 18
  209.  0.00009     2.01572  249.   RY ( 3) H  9
  210.  0.00009     2.14013  465.   RY ( 3) H 27
  211.  0.00008     2.02591  244.   RY ( 3) H  8
  212.  0.00009     2.03019  254.   RY ( 3) H 10
  213.  0.00009     3.42234  266.   RY (10) N 11
  214.  0.00008     2.59401  374.   RY (10) C 20
  215.  0.00008     2.22166  310.   RY ( 2) H 13
  216.  0.00008     2.35663  434.   RY ( 3) H 25
  217.  0.00008     2.36142  393.   RY ( 3) H 21
  218.  0.00008     2.47439  471.   RY ( 4) O 28
  219.  0.00008     2.68842  193.   RY ( 9) C  5
  220.  0.00007     2.20956  375.   RY (11) C 20
  221.  0.00008     2.31199  398.   RY ( 3) H 22
  222.  0.00008     3.75281  442.   RY ( 6) C 26
  223.  0.00007     2.07901   92.   RY (12) C  1
  224.  0.00007     2.12598  311.   RY ( 3) H 13
  225.  0.00007     2.25204  351.   RY ( 2) H 17
  226.  0.00007     1.63393  289.   RY ( 7) C 12
  227.  0.00007     2.53245  255.   RY ( 4) H 10
  228.  0.00007     2.12199  357.   RY ( 3) H 18
  229.  0.00007     2.35749  429.   RY ( 3) H 24
  230.  0.00007     2.00469  114.   RY ( 8) C  2
  231.  0.00007     2.12822  316.   RY ( 3) H 14
  232.  0.00007     2.18512  321.   RY ( 3) H 15
  233.  0.00007     2.18225  362.   RY ( 3) H 19
  234.  0.00006     2.57449  240.   RY ( 4) H  7
  235.  0.00006     1.54982  330.   RY ( 7) C 16
  236.  0.00006     3.42120   93.   RY (13) C  1
  237.  0.00006     2.91105  115.   RY ( 9) C  2
  238.  0.00006     2.76907  267.   RY (11) N 11
  239.  0.00006     2.14499  352.   RY ( 3) H 17
  240.  0.00006     2.15450  410.   RY (10) C 23
  241.  0.00005     3.71140  223.   RY (13) C  6
  242.  0.00005     2.24426  363.   RY ( 4) H 19
  243.  0.00005     2.57125   94.   RY (14) C  1
  244.  0.00005     1.77827  140.   RY ( 8) C  3
  245.  0.00005     1.74209  166.   RY ( 8) C  4
  246.  0.00005     2.54379  250.   RY ( 4) H  9
  247.  0.00005     2.41249  376.   RY (12) C 20
  248.  0.00005     1.66437  443.   RY ( 7) C 26
  249.  0.00005     2.55240  245.   RY ( 4) H  8
  250.  0.00005     1.75765  290.   RY ( 8) C 12
  251.  0.00005     2.02887  466.   RY ( 4) H 27
  252.  0.00005     2.51632  399.   RY ( 4) H 22
  253.  0.00005     1.77806  331.   RY ( 8) C 16
  254.  0.00005     2.35631  411.   RY (11) C 23
  255.  0.00004     2.20491  224.   RY (14) C  6
  256.  0.00004     1.85357  194.   RY (10) C  5
  257.  0.00004     1.96858  116.   RY (10) C  2
  258.  0.00004     2.26676  312.   RY ( 4) H 13
  259.  0.00004     2.35933  430.   RY ( 4) H 24
  260.  0.00004     2.27056  394.   RY ( 4) H 21
  261.  0.00003     2.26066  353.   RY ( 4) H 17
  262.  0.00003     3.59888  225.   RY (15) C  6
  263.  0.00003     2.23407  317.   RY ( 4) H 14
  264.  0.00003     2.22168  322.   RY ( 4) H 15
  265.  0.00003     2.23586  117.   RY (11) C  2
  266.  0.00003     1.65560  472.   RY ( 5) O 28
  267.  0.00003     2.35166  195.   RY (11) C  5
  268.  0.00003     3.20680  268.   RY (12) N 11
  269.  0.00003     2.22519  358.   RY ( 4) H 18
  270.  0.00003     2.39596  435.   RY ( 4) H 25
  271.  0.00002     1.38736  444.   RY ( 8) C 26
  272.  0.00002     3.17220  226.   RY (16) C  6
  273.  0.00002     2.25059  291.   RY ( 9) C 12
  274.  0.00002     1.62969  332.   RY ( 9) C 16
  275.  0.00002     1.37285  473.   RY ( 6) O 28
  276.  0.00002     2.79348  377.   RY (13) C 20
  277.  0.00002     3.50248   95.   RY (15) C  1
  278.  0.00002     2.55166  400.   RY ( 5) H 22
  279.  0.00002     2.27983  167.   RY ( 9) C  4
  280.  0.00002     3.08885  269.   RY (13) N 11
  281.  0.00002     1.66525  292.   RY (10) C 12
  282.  0.00002     2.36592  333.   RY (10) C 16
  283.  0.00002     3.42506  378.   RY (14) C 20
  284.  0.00002     2.62838  412.   RY (12) C 23
  285.  0.00002     3.38942   96.   RY (16) C  1
  286.  0.00002     2.52438  196.   RY (12) C  5
  287.  0.00002     3.67954  227.   RY (17) C  6
  288.  0.00002     3.36971  270.   RY (14) N 11
  289.  0.00001     2.75080   97.   RY (17) C  1
  290.  0.00001     1.99843  118.   RY (12) C  2
  291.  0.00001     2.21898  141.   RY ( 9) C  3
  292.  0.00001     2.25652  197.   RY (13) C  5
  293.  0.00001     2.24803  293.   RY (11) C 12
  294.  0.00001     1.42488  474.   RY ( 7) O 28
  295.  0.00001     2.93929  256.   RY ( 5) H 10
  296.  0.00001     2.18958  379.   RY (15) C 20
  297.  0.00001     2.44336  431.   RY ( 5) H 24
  298.  0.00001     2.24697  119.   RY (13) C  2
  299.  0.00001     2.69304  168.   RY (10) C  4
  300.  0.00001     3.32115  198.   RY (14) C  5
  301.  0.00001     2.90866  241.   RY ( 5) H  7
  302.  0.00001     4.45712  271.   RY (15) N 11
  303.  0.00001     2.82303  380.   RY (16) C 20
  304.  0.00001     2.47407  395.   RY ( 5) H 21
  305.  0.00001     3.02163   98.   RY (18) C  1
  306.  0.00001     2.94960  142.   RY (10) C  3
  307.  0.00001     2.76271  120.   RY (14) C  2
  308.  0.00001     2.30714  143.   RY (11) C  3
  309.  0.00001     1.82102  169.   RY (11) C  4
  310.  0.00001     2.87778  246.   RY ( 5) H  8
  311.  0.00001     2.85163  251.   RY ( 5) H  9
  312.  0.00001     2.60127  445.   RY ( 9) C 26
  313.  0.00001     2.16728  144.   RY (12) C  3
  314.  0.00001     2.47050  170.   RY (12) C  4
  315.  0.00001     3.20178  228.   RY (18) C  6
  316.  0.00001     2.51693  334.   RY (11) C 16
  317.  0.00001     3.07995  413.   RY (13) C 23
  318.  0.00001     1.89740  446.   RY (10) C 26
  319.  0.00001     2.24029   99.   RY (19) C  1
  320.  0.00001     3.12860  121.   RY (15) C  2
  321.  0.00001     3.02627  199.   RY (15) C  5
  322.  0.00001     3.74120  229.   RY (19) C  6
  323.  0.00000     3.50108  100.   RY (20) C  1
  324.  0.00000     3.65305  101.   RY (21) C  1
  325.  0.00000     5.47854  122.   RY (16) C  2
  326.  0.00000     2.82233  123.   RY (17) C  2
  327.  0.00000     3.03399  145.   RY (13) C  3
  328.  0.00000     2.70038  171.   RY (13) C  4
  329.  0.00000    11.81423  102.   RY (22) C  1
  330.  0.00000     4.86940  103.   RY (23) C  1
  331.  0.00000     3.30048  104.   RY (24) C  1
  332.  0.00000     3.70626  105.   RY (25) C  1
  333.  0.00000     9.21191  106.   RY (26) C  1
  334.  0.00000     4.89946  124.   RY (18) C  2
  335.  0.00000     2.18652  125.   RY (19) C  2
  336.  0.00000     4.30378  126.   RY (20) C  2
  337.  0.00000     3.19702  127.   RY (21) C  2
  338.  0.00000     6.84385  128.   RY (22) C  2
  339.  0.00000     2.96752  129.   RY (23) C  2
  340.  0.00000     4.26916  130.   RY (24) C  2
  341.  0.00000     4.33073  131.   RY (25) C  2
  342.  0.00000     8.05494  132.   RY (26) C  2
  343.  0.00000     3.60567  146.   RY (14) C  3
  344.  0.00000     2.89520  147.   RY (15) C  3
  345.  0.00000     3.14434  148.   RY (16) C  3
  346.  0.00000     3.66861  149.   RY (17) C  3
  347.  0.00000     4.80346  150.   RY (18) C  3
  348.  0.00000     3.13284  151.   RY (19) C  3
  349.  0.00000     3.04068  152.   RY (20) C  3
  350.  0.00000     3.29025  153.   RY (21) C  3
  351.  0.00000     3.20968  154.   RY (22) C  3
  352.  0.00000     3.00709  155.   RY (23) C  3
  353.  0.00000    10.73748  156.   RY (24) C  3
  354.  0.00000     3.82265  157.   RY (25) C  3
  355.  0.00000     4.16901  172.   RY (14) C  4
  356.  0.00000     3.62786  173.   RY (15) C  4
  357.  0.00000     6.39372  158.   RY (26) C  3
  358.  0.00000     3.05504  174.   RY (16) C  4
  359.  0.00000     8.15027  175.   RY (17) C  4
  360.  0.00000     8.02707  176.   RY (18) C  4
  361.  0.00000     2.85880  177.   RY (19) C  4
  362.  0.00000     3.23528  178.   RY (20) C  4
  363.  0.00000     3.92502  179.   RY (21) C  4
  364.  0.00000     4.15103  180.   RY (22) C  4
  365.  0.00000     3.31293  181.   RY (23) C  4
  366.  0.00000     3.89258  182.   RY (24) C  4
  367.  0.00000     4.30452  183.   RY (25) C  4
  368.  0.00000     3.22686  184.   RY (26) C  4
  369.  0.00000     2.28596  200.   RY (16) C  5
  370.  0.00000     4.36559  201.   RY (17) C  5
  371.  0.00000     3.39728  202.   RY (18) C  5
  372.  0.00000     5.08685  203.   RY (19) C  5
  373.  0.00000     3.59675  230.   RY (20) C  6
  374.  0.00000     4.86764  272.   RY (16) N 11
  375.  0.00000     3.52555  231.   RY (21) C  6
  376.  0.00000     3.67024  273.   RY (17) N 11
  377.  0.00000     4.10975  274.   RY (18) N 11
  378.  0.00000     2.29739  294.   RY (12) C 12
  379.  0.00000     3.54258  204.   RY (20) C  5
  380.  0.00000    12.44226  205.   RY (21) C  5
  381.  0.00000     3.17849  206.   RY (22) C  5
  382.  0.00000     3.51565  207.   RY (23) C  5
  383.  0.00000     3.29052  208.   RY (24) C  5
  384.  0.00000     6.61515  209.   RY (25) C  5
  385.  0.00000     2.90175  210.   RY (26) C  5
  386.  0.00000    19.20116  232.   RY (22) C  6
  387.  0.00000     4.62690  233.   RY (23) C  6
  388.  0.00000     3.42319  234.   RY (24) C  6
  389.  0.00000     3.36565  235.   RY (25) C  6
  390.  0.00000     2.63452  236.   RY (26) C  6
  391.  0.00000     4.57959  275.   RY (19) N 11
  392.  0.00000     5.22924  276.   RY (20) N 11
  393.  0.00000    23.26810  277.   RY (21) N 11
  394.  0.00000     4.41513  278.   RY (22) N 11
  395.  0.00000     4.45624  279.   RY (23) N 11
  396.  0.00000     2.19605  295.   RY (13) C 12
  397.  0.00000     2.34944  296.   RY (14) C 12
  398.  0.00000     2.63958  313.   RY ( 5) H 13
  399.  0.00000     2.49709  318.   RY ( 5) H 14
  400.  0.00001     2.66219  323.   RY ( 5) H 15
  401.  0.00000     1.81956  335.   RY (12) C 16
  402.  0.00000     2.54973  354.   RY ( 5) H 17
  403.  0.00000     2.92615  336.   RY (13) C 16
  404.  0.00000     2.53033  359.   RY ( 5) H 18
  405.  0.00000     3.22895  381.   RY (17) C 20
  406.  0.00001     3.45918  382.   RY (18) C 20
  407.  0.00001     3.55319  414.   RY (14) C 23
  408.  0.00001     2.23473  436.   RY ( 5) H 25
  409.  0.00001     2.87823  467.   RY ( 5) H 27
  410.  0.00000     2.54143  364.   RY ( 5) H 19
  411.  0.00000     2.76136  415.   RY (15) C 23
  412.  0.00000     2.28564  447.   RY (11) C 26
  413.  0.00000     3.65826  475.   RY ( 8) O 28
  414.  0.00000     2.58147  337.   RY (14) C 16
  415.  0.00000     2.48619  383.   RY (19) C 20
  416.  0.00000     6.60955  280.   RY (24) N 11
  417.  0.00000     5.27997  281.   RY (25) N 11
  418.  0.00000     5.08305  282.   RY (26) N 11
  419.  0.00000     3.55728  297.   RY (15) C 12
  420.  0.00000     4.68827  298.   RY (16) C 12
  421.  0.00000    15.21652  299.   RY (17) C 12
  422.  0.00000     4.99346  300.   RY (18) C 12
  423.  0.00000     3.17335  301.   RY (19) C 12
  424.  0.00000     2.49343  302.   RY (20) C 12
  425.  0.00000     3.22731  303.   RY (21) C 12
  426.  0.00000     3.29574  304.   RY (22) C 12
  427.  0.00000     3.25487  305.   RY (23) C 12
  428.  0.00000     3.24097  306.   RY (24) C 12
  429.  0.00000     3.40542  307.   RY (25) C 12
  430.  0.00000     5.82129  308.   RY (26) C 12
  431.  0.00000     3.18489  338.   RY (15) C 16
  432.  0.00000     3.44122  339.   RY (16) C 16
  433.  0.00000    18.78036  340.   RY (17) C 16
  434.  0.00000     3.18970  341.   RY (18) C 16
  435.  0.00000     5.05618  342.   RY (19) C 16
  436.  0.00000     3.42619  343.   RY (20) C 16
  437.  0.00000     3.34701  344.   RY (21) C 16
  438.  0.00000     2.30060  345.   RY (22) C 16
  439.  0.00000     2.76107  346.   RY (23) C 16
  440.  0.00000     3.01024  347.   RY (24) C 16
  441.  0.00000     3.26330  348.   RY (25) C 16
  442.  0.00000     3.70686  349.   RY (26) C 16
  443.  0.00000    19.44204  384.   RY (20) C 20
  444.  0.00000     3.95773  385.   RY (21) C 20
  445.  0.00000     3.99102  386.   RY (22) C 20
  446.  0.00000     3.42010  387.   RY (23) C 20
  447.  0.00000     3.28210  416.   RY (16) C 23
  448.  0.00000     2.42749  448.   RY (12) C 26
  449.  0.00000     3.67259  388.   RY (24) C 20
  450.  0.00000     3.40030  389.   RY (25) C 20
  451.  0.00000     2.77525  417.   RY (17) C 23
  452.  0.00000     3.28119  418.   RY (18) C 23
  453.  0.00000     2.25222  419.   RY (19) C 23
  454.  0.00000     3.78594  390.   RY (26) C 20
  455.  0.00000    11.24654  420.   RY (20) C 23
  456.  0.00000     5.63052  421.   RY (21) C 23
  457.  0.00000     3.86041  422.   RY (22) C 23
  458.  0.00000     3.59902  423.   RY (23) C 23
  459.  0.00000     3.63516  424.   RY (24) C 23
  460.  0.00000     5.36405  425.   RY (25) C 23
  461.  0.00000     3.76983  426.   RY (26) C 23
  462.  0.00000     3.14067  449.   RY (13) C 26
  463.  0.00000     3.02260  450.   RY (14) C 26
  464.  0.00000     2.69092  451.   RY (15) C 26
  465.  0.00000     2.37627  452.   RY (16) C 26
  466.  0.00000     2.95328  453.   RY (17) C 26
  467.  0.00000     2.44617  454.   RY (18) C 26
  468.  0.00000     2.27851  455.   RY (19) C 26
  469.  0.00000     3.01565  456.   RY (20) C 26
  470.  0.00000     2.70723  457.   RY (21) C 26
  471.  0.00000     3.09382  476.   RY ( 9) O 28
  472.  0.00000     2.74036  477.   RY (10) O 28
  473.  0.00000     8.53667  458.   RY (22) C 26
  474.  0.00000     5.63607  459.   RY (23) C 26
  475.  0.00000     5.09979  460.   RY (24) C 26
  476.  0.00000     8.83706  461.   RY (25) C 26
  477.  0.00000     3.12064  462.   RY (26) C 26
  478.  0.00000     4.13225  478.   RY (11) O 28
  479.  0.00000     6.14930  479.   RY (12) O 28
  480.  0.00000     8.12643  480.   RY (13) O 28
  481.  0.00000     8.53121  481.   RY (14) O 28
  482.  0.00000     4.78081  482.   RY (15) O 28
  483.  0.00000    13.29583  483.   RY (16) O 28
  484.  0.00000    10.41292  484.   RY (17) O 28
  485.  0.00000     2.45276  485.   RY (18) O 28
  486.  0.00000    11.70106  486.   RY (19) O 28
  487.  0.00000     6.18623  487.   RY (20) O 28
  488.  0.00000     8.96213  488.   RY (21) O 28
  489.  0.00000     6.12468  489.   RY (22) O 28
  490.  0.00000     5.99742  490.   RY (23) O 28
  491.  0.00000    12.43845  491.   RY (24) O 28
  492.  0.00000     5.73813  492.   RY (25) O 28
  493.  0.00000     5.97237  493.   RY (26) O 28

 Maximum scratch memory used by NBO was 2207538 words
 Maximum scratch memory used by G09NBO was 1585776 words

 Read Unf file /home/aloke/aloke/prakash/Gau-43295.EUF:
 Label Gaussian matrix elements                                         IVers= 1 NLab= 2 Version=AM64L-G09RevD.01
 Title Energy Optimisation and Frequency calculation                   
 NAtoms=    28 NBasis=   493 NBsUse=   493 ICharg=     0 Multip=     1 NE=    96 Len12L=8 Len4L=8
 Label GAUSSIAN SCALARS                                                 NI= 1 NR= 1 NTot=       1 LenBuf=    2000 N=    1000       1       1       1       1
 Label ALPHA ORBITAL ENERGIES                                           NI= 0 NR= 1 NTot=     493 LenBuf=    4000 N=     493       0       0       0       0
 Label ALPHA MO COEFFICIENTS                                            NI= 0 NR= 1 NTot=  243049 LenBuf=    4000 N=     493     493       0       0       0
 Store file  524 Len=  243049.
 Label NPA CHARGES                                                      NI= 0 NR= 1 NTot=      28 LenBuf=    4000 N=      28       0       0       0       0
 Recovered energy= -558.395149893     dipole=      0.000000000000      0.000000000000      0.000000000000
 1\1\GINC-CN031\SP\RB3LYP\def2TZVP\C11H15N1O1\ALOKE\11-Jul-2021\0\\# b
 3lyp/def2tzvp empiricaldispersion=gd3 pop=nbo6read pop=saveNBOs int=(g
 rid=ultrafine) scf=(tight,maxcycle=300)\\Energy Optimisation and Frequ
 ency calculation\\0,1\C,0,-0.272962,-0.821932,0.304875\C,0,-0.910699,-
 2.060703,0.317395\C,0,-2.265994,-2.192382,0.034593\C,0,-3.009414,-1.06
 2015,-0.270256\C,0,-2.398584,0.186978,-0.26892\C,0,-1.04017,0.326109,0
 .022048\H,0,-0.323987,-2.945817,0.535701\H,0,-2.730504,-3.170116,0.044
 24\H,0,-4.064546,-1.144532,-0.499486\H,0,-2.990802,1.064137,-0.491922\
 N,0,-0.399435,1.602365,0.022284\C,0,-0.926453,2.589607,-0.905328\H,0,-
 1.887352,3.02655,-0.589788\H,0,-0.209428,3.408569,-0.993134\H,0,-1.059
 416,2.141428,-1.889741\C,0,-0.201949,2.170034,1.354044\H,0,-1.142254,2
 .554549,1.780012\H,0,0.513379,2.993405,1.300902\H,0,0.19006,1.419413,2
 .036621\C,0,1.221347,-0.750358,0.506006\H,0,1.579847,-1.694457,0.91923
 3\H,0,1.501052,0.014928,1.22844\C,0,1.960363,-0.464736,-0.802652\H,0,1
 .604113,0.474533,-1.24176\H,0,1.75514,-1.235828,-1.55532\C,0,3.451068,
 -0.351845,-0.65799\H,0,3.998546,-0.187956,-1.612433\O,0,4.052859,-0.41
 8488,0.383696\\Version=AM64L-G09RevD.01\State=1-A\HF=-558.3951499\RMSD
 =3.603e-09\Dipole=-0.8327808,0.3695055,-0.6586611\Quadrupole=-6.662622
 3,5.8212239,0.8413984,0.2342183,-3.9411432,0.3041995\PG=C01 [X(C11H15N
 1O1)]\\@


 THE MORE POWERFUL THE METHOD, THE MORE CATASTROPHIC THE ERRORS.
     -- M.D. KAMEN
 Job cpu time:       0 days  0 hours 47 minutes 23.1 seconds.
 File lengths (MBytes):  RWF=     95 Int=      0 D2E=      0 Chk=     10 Scr=      1
 Normal termination of Gaussian 09 at Sun Jul 11 13:38:58 2021.
