 Entering Gaussian System, Link 0=g09
 Initial command:
 /home/apps/iiser/g09/g09/l1.exe "/home/aloke/aloke/prakash/Gau-1358.inp" -scrdir="/home/aloke/aloke/prakash/"
 Entering Link 1 = /home/apps/iiser/g09/g09/l1.exe PID=      1359.
  
 Copyright (c) 1988,1990,1992,1993,1995,1998,2003,2009,2013,
            Gaussian, Inc.  All Rights Reserved.
  
 This is part of the Gaussian(R) 09 program.  It is based on
 the Gaussian(R) 03 system (copyright 2003, Gaussian, Inc.),
 the Gaussian(R) 98 system (copyright 1998, Gaussian, Inc.),
 the Gaussian(R) 94 system (copyright 1995, Gaussian, Inc.),
 the Gaussian 92(TM) system (copyright 1992, Gaussian, Inc.),
 the Gaussian 90(TM) system (copyright 1990, Gaussian, Inc.),
 the Gaussian 88(TM) system (copyright 1988, Gaussian, Inc.),
 the Gaussian 86(TM) system (copyright 1986, Carnegie Mellon
 University), and the Gaussian 82(TM) system (copyright 1983,
 Carnegie Mellon University). Gaussian is a federally registered
 trademark of Gaussian, Inc.
  
 This software contains proprietary and confidential information,
 including trade secrets, belonging to Gaussian, Inc.
  
 This software is provided under written license and may be
 used, copied, transmitted, or stored only in accord with that
 written license.
  
 The following legend is applicable only to US Government
 contracts under FAR:
  
                    RESTRICTED RIGHTS LEGEND
  
 Use, reproduction and disclosure by the US Government is
 subject to restrictions as set forth in subparagraphs (a)
 and (c) of the Commercial Computer Software - Restricted
 Rights clause in FAR 52.227-19.
  
 Gaussian, Inc.
 340 Quinnipiac St., Bldg. 40, Wallingford CT 06492
  
  
 ---------------------------------------------------------------
 Warning -- This program may not be used in any manner that
 competes with the business of Gaussian, Inc. or will provide
 assistance to any competitor of Gaussian, Inc.  The licensee
 of this program is prohibited from giving any competitor of
 Gaussian, Inc. access to this program.  By using this program,
 the user acknowledges that Gaussian, Inc. is engaged in the
 business of creating and licensing software in the field of
 computational chemistry and represents and warrants to the
 licensee that it is not a competitor of Gaussian, Inc. and that
 it will not use this program in any manner prohibited above.
 ---------------------------------------------------------------
  

 Cite this work as:
 Gaussian 09, Revision D.01,
 M. J. Frisch, G. W. Trucks, H. B. Schlegel, G. E. Scuseria, 
 M. A. Robb, J. R. Cheeseman, G. Scalmani, V. Barone, B. Mennucci, 
 G. A. Petersson, H. Nakatsuji, M. Caricato, X. Li, H. P. Hratchian, 
 A. F. Izmaylov, J. Bloino, G. Zheng, J. L. Sonnenberg, M. Hada, 
 M. Ehara, K. Toyota, R. Fukuda, J. Hasegawa, M. Ishida, T. Nakajima, 
 Y. Honda, O. Kitao, H. Nakai, T. Vreven, J. A. Montgomery, Jr., 
 J. E. Peralta, F. Ogliaro, M. Bearpark, J. J. Heyd, E. Brothers, 
 K. N. Kudin, V. N. Staroverov, T. Keith, R. Kobayashi, J. Normand, 
 K. Raghavachari, A. Rendell, J. C. Burant, S. S. Iyengar, J. Tomasi, 
 M. Cossi, N. Rega, J. M. Millam, M. Klene, J. E. Knox, J. B. Cross, 
 V. Bakken, C. Adamo, J. Jaramillo, R. Gomperts, R. E. Stratmann, 
 O. Yazyev, A. J. Austin, R. Cammi, C. Pomelli, J. W. Ochterski, 
 R. L. Martin, K. Morokuma, V. G. Zakrzewski, G. A. Voth, 
 P. Salvador, J. J. Dannenberg, S. Dapprich, A. D. Daniels, 
 O. Farkas, J. B. Foresman, J. V. Ortiz, J. Cioslowski, 
 and D. J. Fox, Gaussian, Inc., Wallingford CT, 2013.
 
 ******************************************
 Gaussian 09:  AM64L-G09RevD.01 24-Apr-2013
                11-Jul-2021 
 ******************************************
 %LindaWorkers=cn031
 %chk=mod_bp31_n.chk
 %mem=128GB
 %nprocshared=48
 Will use up to   48 processors via shared memory.
 SetLPE:  input flags=" -opt "Tsnet.Node.lindarsharg: ssh" "
 SetLPE:    new flags=" -opt "Tsnet.Node.lindarsharg: ssh"  -nodelist 'cn031'"
 Will use up to    1 processors via Linda.
 ----------------------------------------------------------------------
 # b3lyp/def2tzvp empiricaldispersion=gd3 pop=nbo6read pop=saveNBOs int
 =(grid=ultrafine) scf=(tight,maxcycle=300)
 ----------------------------------------------------------------------
 1/38=1,163=2/1;
 2/12=2,17=6,18=5,40=1/2;
 3/5=44,7=101,11=2,16=1,25=1,30=1,74=-5,75=-5,124=31/1,2,3;
 4//1;
 5/5=2,7=300,32=2,38=5/2;
 6/7=2,8=2,9=2,10=2,28=1,40=2,73=1,113=1,114=1,124=2103/1,12;
 99/5=1,9=1/99;
 ---------------------------------------------
 Energy Optimisation and Frequency calculation
 ---------------------------------------------
 Symbolic Z-matrix:
 Charge =  0 Multiplicity = 1
 C                    -0.28954   0.36054   0.58603 
 C                    -0.8302    1.64249   0.66326 
 C                    -0.14987   2.75116   0.17335 
 C                     1.09713   2.58462  -0.41186 
 C                     1.65994   1.31602  -0.48703 
 C                     0.98468   0.19946   0.00932 
 H                    -1.82231   1.76147   1.07921 
 H                    -0.60025   3.73357   0.23552 
 H                     1.63676   3.4371   -0.80551 
 H                     2.63826   1.19617  -0.93291 
 N                     1.54977  -1.11327  -0.06356 
 C                     2.37234  -1.39329  -1.22898 
 H                     3.36677  -0.92001  -1.19584 
 H                     2.52718  -2.47207  -1.30147 
 H                     1.86317  -1.05686  -2.13185 
 C                     2.20381  -1.54003   1.16994 
 H                     3.16484  -1.02491   1.32852 
 H                     2.39328  -2.61522   1.13407 
 H                     1.57025  -1.33081   2.02995 
 C                    -1.10286  -0.82901   1.04493 
 H                    -1.9217   -0.48085   1.67566 
 H                    -0.49942  -1.50552   1.64844 
 C                    -1.68488  -1.6262   -0.12739 
 H                    -2.04574  -2.60946   0.20488 
 H                    -0.9128   -1.84234  -0.87191 
 C                    -2.85268  -0.9724   -0.81582 
 H                    -3.18333  -1.48033  -1.74831 
 O                    -3.43383   0.00533  -0.41974 
 
                          Input orientation:                          
 ---------------------------------------------------------------------
 Center     Atomic      Atomic             Coordinates (Angstroms)
 Number     Number       Type             X           Y           Z
 ---------------------------------------------------------------------
      1          6           0       -0.289544    0.360543    0.586034
      2          6           0       -0.830196    1.642491    0.663257
      3          6           0       -0.149866    2.751163    0.173349
      4          6           0        1.097133    2.584624   -0.411864
      5          6           0        1.659944    1.316018   -0.487033
      6          6           0        0.984682    0.199464    0.009320
      7          1           0       -1.822309    1.761465    1.079212
      8          1           0       -0.600254    3.733574    0.235519
      9          1           0        1.636756    3.437103   -0.805514
     10          1           0        2.638256    1.196171   -0.932914
     11          7           0        1.549767   -1.113269   -0.063563
     12          6           0        2.372340   -1.393291   -1.228983
     13          1           0        3.366770   -0.920007   -1.195844
     14          1           0        2.527175   -2.472070   -1.301474
     15          1           0        1.863168   -1.056855   -2.131852
     16          6           0        2.203805   -1.540027    1.169941
     17          1           0        3.164839   -1.024912    1.328521
     18          1           0        2.393278   -2.615222    1.134067
     19          1           0        1.570254   -1.330814    2.029954
     20          6           0       -1.102859   -0.829008    1.044926
     21          1           0       -1.921702   -0.480847    1.675658
     22          1           0       -0.499423   -1.505516    1.648437
     23          6           0       -1.684876   -1.626195   -0.127394
     24          1           0       -2.045742   -2.609458    0.204884
     25          1           0       -0.912796   -1.842342   -0.871905
     26          6           0       -2.852676   -0.972397   -0.815823
     27          1           0       -3.183330   -1.480334   -1.748314
     28          8           0       -3.433829    0.005331   -0.419735
 ---------------------------------------------------------------------
                    Distance matrix (angstroms):
                    1          2          3          4          5
     1  C    0.000000
     2  C    1.393434   0.000000
     3  C    2.429996   1.389968   0.000000
     4  C    2.804498   2.399603   1.387522   0.000000
     5  C    2.421757   2.762345   2.402323   1.389880   0.000000
     6  C    1.407905   2.409096   2.797369   2.424671   1.396079
     7  H    2.134286   1.082341   2.144098   3.379947   3.844169
     8  H    3.405399   2.146733   1.082518   2.149491   3.387500
     9  H    3.887449   3.385819   2.149582   1.082993   2.144987
    10  H    3.402571   3.844102   3.378675   2.138774   1.081789
    11  N    2.444824   3.713045   4.228323   3.741738   2.468380
    12  C    3.668221   4.801331   5.050204   4.256483   2.897991
    13  H    4.264215   5.257107   5.264875   4.248331   2.900944
    14  H    4.418177   5.662307   6.051761   5.329782   3.970518
    15  H    3.745676   4.727929   4.885413   4.099456   2.894349
    16  C    3.189029   4.426094   4.994725   4.554072   3.346392
    17  H    3.795199   4.849528   5.155622   4.509224   3.322785
    18  H    4.043891   5.361023   6.015700   5.577481   4.315135
    19  H    2.899042   4.058394   4.802950   4.638639   3.653627
    20  C    1.512314   2.515616   3.805978   4.314520   3.818523
    21  H    2.135218   2.593242   3.980229   4.782073   4.553476
    22  H    2.157528   3.315108   4.518561   4.850059   4.145377
    23  C    2.530427   3.469858   4.648437   5.054849   4.469203
    24  H    3.471370   4.445979   5.686088   6.102174   5.442446
    25  H    2.714172   3.808885   4.772306   4.883593   4.091742
    26  C    3.211165   3.621566   4.706224   5.330720   5.070373
    27  H    4.148735   4.594012   5.549798   6.052466   5.733037
    28  O    3.320282   3.260685   4.321545   5.213677   5.260129
                    6          7          8          9         10
     6  C    0.000000
     7  H    3.385811   0.000000
     8  H    3.879835   2.468694   0.000000
     9  H    3.401685   4.280781   2.485127   0.000000
    10  H    2.148380   4.925936   4.276868   2.457846   0.000000
    11  N    1.431049   4.576126   5.310737   4.611284   2.697053
    12  C    2.448644   5.733701   6.104574   4.904398   2.619863
    13  H    2.894819   6.268390   6.280278   4.704223   2.253458
    14  H    3.351799   6.519854   7.117105   5.996428   3.688383
    15  H    2.633380   5.642393   5.883970   4.691065   2.667272
    16  C    2.420564   5.207463   6.045392   5.384774   3.478150
    17  H    2.827096   5.718190   6.165531   5.176748   3.213190
    18  H    3.342403   6.076971   7.076428   6.400386   4.342711
    19  H    2.601462   4.687812   5.794750   5.547732   4.037929
    20  C    2.547167   2.688742   4.660998   5.397159   4.691390
    21  H    3.418563   2.322410   4.645597   5.845440   5.514549
    22  H    2.792173   3.570323   5.427206   5.917315   4.879295
    23  C    3.237014   3.598753   5.480441   6.093445   5.225331
    24  H    4.136636   4.463109   6.505723   7.151405   6.141436
    25  H    2.923346   4.197797   5.693409   5.863204   4.673998
    26  C    4.096271   3.482358   5.322113   6.292757   5.904806
    27  H    4.825280   4.511822   6.147578   6.950057   6.459057
    28  O    4.443536   2.815643   4.728457   6.134877   6.208999
                   11         12         13         14         15
    11  N    0.000000
    12  C    1.453700   0.000000
    13  H    2.149630   1.101811   0.000000
    14  H    2.081848   1.092242   1.767760   0.000000
    15  H    2.092659   1.089779   1.776417   1.770104   0.000000
    16  C    1.459938   2.409309   2.708108   2.661046   3.354300
    17  H    2.134048   2.702699   2.534601   3.068836   3.697235
    18  H    2.098021   2.660368   3.041369   2.443416   3.657287
    19  H    2.104889   3.356772   3.715105   3.649188   4.181086
    20  C    2.888940   4.191191   5.000691   4.624110   4.352143
    21  H    3.933948   5.263866   6.033765   5.711461   5.399459
    22  H    2.698885   4.066837   4.835308   4.335493   4.480370
    23  C    3.275681   4.210552   5.211469   4.453689   4.114683
    24  H    3.903630   4.801509   5.840511   4.816592   4.811495
    25  H    2.692430   3.334857   4.389798   3.523420   3.148084
    26  C    4.468472   5.258198   6.231265   5.606039   4.896759
    27  H    5.037393   5.580569   6.597196   5.813181   5.078738
    28  O    5.119995   6.026825   6.907007   6.515255   5.667253
                   16         17         18         19         20
    16  C    0.000000
    17  H    1.101852   0.000000
    18  H    1.092351   1.778259   0.000000
    19  H    1.088476   1.768696   1.769092   0.000000
    20  C    3.384554   4.281594   3.927019   2.892684   0.000000
    21  H    4.289221   5.127320   4.844371   3.611333   1.090662
    22  H    2.745467   3.709467   3.140660   2.111786   1.089047
    23  C    4.100286   5.099114   4.381872   3.916283   1.532509
    24  H    4.487056   5.560890   4.535230   4.247498   2.182820
    25  H    3.738145   4.705016   3.943525   3.853308   2.176513
    26  C    5.462002   6.388384   5.832750   5.271548   2.558282
    27  H    6.127071   7.069199   6.379236   6.074062   3.543272
    28  O    6.057897   6.903638   6.575468   5.729494   2.876591
                   21         22         23         24         25
    21  H    0.000000
    22  H    1.753159   0.000000
    23  C    2.149164   2.138560   0.000000
    24  H    2.590279   2.386134   1.098835   0.000000
    25  H    3.059679   2.576131   1.094131   1.741123   0.000000
    26  C    2.704776   3.448854   1.505039   2.091161   2.126754
    27  H    3.783420   4.329193   2.212244   2.526660   2.460583
    28  O    2.629367   3.894962   2.409601   3.025567   3.158158
                   26         27         28
    26  C    0.000000
    27  H    1.112147   0.000000
    28  O    1.204399   2.008749   0.000000
 Stoichiometry    C11H15NO
 Framework group  C1[X(C11H15NO)]
 Deg. of freedom    78
 Full point group                 C1      NOp   1
 Largest Abelian subgroup         C1      NOp   1
 Largest concise Abelian subgroup C1      NOp   1
                         Standard orientation:                         
 ---------------------------------------------------------------------
 Center     Atomic      Atomic             Coordinates (Angstroms)
 Number     Number       Type             X           Y           Z
 ---------------------------------------------------------------------
      1          6           0       -0.289544    0.360543    0.586034
      2          6           0       -0.830196    1.642491    0.663257
      3          6           0       -0.149866    2.751163    0.173349
      4          6           0        1.097133    2.584624   -0.411864
      5          6           0        1.659944    1.316018   -0.487033
      6          6           0        0.984682    0.199464    0.009320
      7          1           0       -1.822309    1.761465    1.079212
      8          1           0       -0.600254    3.733574    0.235519
      9          1           0        1.636756    3.437103   -0.805514
     10          1           0        2.638256    1.196171   -0.932914
     11          7           0        1.549767   -1.113269   -0.063563
     12          6           0        2.372340   -1.393291   -1.228983
     13          1           0        3.366770   -0.920007   -1.195844
     14          1           0        2.527175   -2.472070   -1.301474
     15          1           0        1.863168   -1.056855   -2.131852
     16          6           0        2.203805   -1.540027    1.169941
     17          1           0        3.164839   -1.024912    1.328521
     18          1           0        2.393278   -2.615222    1.134067
     19          1           0        1.570254   -1.330814    2.029954
     20          6           0       -1.102859   -0.829008    1.044926
     21          1           0       -1.921702   -0.480847    1.675658
     22          1           0       -0.499423   -1.505516    1.648437
     23          6           0       -1.684876   -1.626195   -0.127394
     24          1           0       -2.045742   -2.609458    0.204884
     25          1           0       -0.912796   -1.842342   -0.871905
     26          6           0       -2.852676   -0.972397   -0.815823
     27          1           0       -3.183330   -1.480334   -1.748314
     28          8           0       -3.433829    0.005331   -0.419735
 ---------------------------------------------------------------------
 Rotational constants (GHZ):      0.9908736      0.6868706      0.4836824
 Standard basis: def2TZVP (5D, 7F)
 There are   558 symmetry adapted cartesian basis functions of A   symmetry.
 There are   493 symmetry adapted basis functions of A   symmetry.
   493 basis functions,   783 primitive gaussians,   558 cartesian basis functions
    48 alpha electrons       48 beta electrons
       nuclear repulsion energy       795.3806150290 Hartrees.
 NAtoms=   28 NActive=   28 NUniq=   28 SFac= 1.00D+00 NAtFMM=   60 NAOKFM=F Big=F
 Integral buffers will be    131072 words long.
 Raffenetti 2 integral format.
 Two-electron integral symmetry is turned on.
 Nuclear repulsion after empirical dispersion term =      795.3540412352 Hartrees.
 One-electron integrals computed using PRISM.
   1 Symmetry operations used in ECPInt.
 ECPInt:  NShTT=   20706 NPrTT=   61756 LenC2=   19742 LenP2D=   44769.
 LDataN:  DoStor=T MaxTD1= 6 Len=  172
 NBasis=   493 RedAO= T EigKep=  5.76D-06  NBF=   493
 NBsUse=   493 1.00D-06 EigRej= -1.00D+00 NBFU=   493
 ExpMin= 9.52D-02 ExpMax= 2.70D+04 ExpMxC= 9.22D+02 IAcc=3 IRadAn=         5 AccDes= 0.00D+00
 Harris functional with IExCor=  402 and IRadAn=       5 diagonalized for initial guess.
 HarFok:  IExCor=  402 AccDes= 0.00D+00 IRadAn=         5 IDoV= 1 UseB2=F ITyADJ=14
 ICtDFT=  3500011 ScaDFX=  1.000000  1.000000  1.000000  1.000000
 FoFCou: FMM=F IPFlag=           0 FMFlag=      100000 FMFlg1=           0
         NFxFlg=           0 DoJE=T BraDBF=F KetDBF=T FulRan=T
         wScrn=  0.000000 ICntrl=     500 IOpCl=  0 I1Cent=   200000004 NGrid=           0
         NMat0=    1 NMatS0=      1 NMatT0=    0 NMatD0=    1 NMtDS0=    0 NMtDT0=    0
 Petite list used in FoFCou.
 Keep R1 ints in memory in canonical form, NReq=7502545268.
 Requested convergence on RMS density matrix=1.00D-08 within 300 cycles.
 Requested convergence on MAX density matrix=1.00D-06.
 Requested convergence on             energy=1.00D-06.
 No special actions if energy rises.
 Integral accuracy reduced to 1.0D-05 until final iterations.
 Initial convergence to 1.0D-05 achieved.  Increase integral accuracy.
 SCF Done:  E(RB3LYP) =  -558.394288450     A.U. after   15 cycles
            NFock= 15  Conv=0.35D-08     -V/T= 2.0052

 **********************************************************************

            Population analysis using the SCF density.

 **********************************************************************

 Orbital symmetries:
       Occupied  (A) (A) (A) (A) (A) (A) (A) (A) (A) (A) (A) (A)
                 (A) (A) (A) (A) (A) (A) (A) (A) (A) (A) (A) (A)
                 (A) (A) (A) (A) (A) (A) (A) (A) (A) (A) (A) (A)
                 (A) (A) (A) (A) (A) (A) (A) (A) (A) (A) (A) (A)
       Virtual   (A) (A) (A) (A) (A) (A) (A) (A) (A) (A) (A) (A)
                 (A) (A) (A) (A) (A) (A) (A) (A) (A) (A) (A) (A)
                 (A) (A) (A) (A) (A) (A) (A) (A) (A) (A) (A) (A)
                 (A) (A) (A) (A) (A) (A) (A) (A) (A) (A) (A) (A)
                 (A) (A) (A) (A) (A) (A) (A) (A) (A) (A) (A) (A)
                 (A) (A) (A) (A) (A) (A) (A) (A) (A) (A) (A) (A)
                 (A) (A) (A) (A) (A) (A) (A) (A) (A) (A) (A) (A)
                 (A) (A) (A) (A) (A) (A) (A) (A) (A) (A) (A) (A)
                 (A) (A) (A) (A) (A) (A) (A) (A) (A) (A) (A) (A)
                 (A) (A) (A) (A) (A) (A) (A) (A) (A) (A) (A) (A)
                 (A) (A) (A) (A) (A) (A) (A) (A) (A) (A) (A) (A)
                 (A) (A) (A) (A) (A) (A) (A) (A) (A) (A) (A) (A)
                 (A) (A) (A) (A) (A) (A) (A) (A) (A) (A) (A) (A)
                 (A) (A) (A) (A) (A) (A) (A) (A) (A) (A) (A) (A)
                 (A) (A) (A) (A) (A) (A) (A) (A) (A) (A) (A) (A)
                 (A) (A) (A) (A) (A) (A) (A) (A) (A) (A) (A) (A)
                 (A) (A) (A) (A) (A) (A) (A) (A) (A) (A) (A) (A)
                 (A) (A) (A) (A) (A) (A) (A) (A) (A) (A) (A) (A)
                 (A) (A) (A) (A) (A) (A) (A) (A) (A) (A) (A) (A)
                 (A) (A) (A) (A) (A) (A) (A) (A) (A) (A) (A) (A)
                 (A) (A) (A) (A) (A) (A) (A) (A) (A) (A) (A) (A)
                 (A) (A) (A) (A) (A) (A) (A) (A) (A) (A) (A) (A)
                 (A) (A) (A) (A) (A) (A) (A) (A) (A) (A) (A) (A)
                 (A) (A) (A) (A) (A) (A) (A) (A) (A) (A) (A) (A)
                 (A) (A) (A) (A) (A) (A) (A) (A) (A) (A) (A) (A)
                 (A) (A) (A) (A) (A) (A) (A) (A) (A) (A) (A) (A)
                 (A) (A) (A) (A) (A) (A) (A) (A) (A) (A) (A) (A)
                 (A) (A) (A) (A) (A) (A) (A) (A) (A) (A) (A) (A)
                 (A) (A) (A) (A) (A) (A) (A) (A) (A) (A) (A) (A)
                 (A) (A) (A) (A) (A) (A) (A) (A) (A) (A) (A) (A)
                 (A) (A) (A) (A) (A) (A) (A) (A) (A) (A) (A) (A)
                 (A) (A) (A) (A) (A) (A) (A) (A) (A) (A) (A) (A)
                 (A) (A) (A) (A) (A) (A) (A) (A) (A) (A) (A) (A)
                 (A) (A) (A) (A) (A) (A) (A) (A) (A) (A) (A) (A)
                 (A) (A) (A) (A) (A) (A) (A) (A) (A) (A) (A) (A)
                 (A) (A) (A) (A) (A) (A) (A) (A) (A) (A) (A) (A)
                 (A) (A) (A) (A) (A) (A) (A) (A) (A) (A) (A) (A)
                 (A)
 The electronic state is 1-A.
 Alpha  occ. eigenvalues --  -19.12620 -14.32163 -10.26114 -10.20408 -10.19728
 Alpha  occ. eigenvalues --  -10.19648 -10.18386 -10.17761 -10.17600 -10.17074
 Alpha  occ. eigenvalues --  -10.16961 -10.16681 -10.16621  -1.05309  -0.94043
 Alpha  occ. eigenvalues --   -0.85066  -0.80093  -0.74486  -0.74295  -0.71605
 Alpha  occ. eigenvalues --   -0.67390  -0.64795  -0.59706  -0.57891  -0.55542
 Alpha  occ. eigenvalues --   -0.51591  -0.49907  -0.48117  -0.47397  -0.46873
 Alpha  occ. eigenvalues --   -0.45625  -0.44440  -0.43434  -0.43059  -0.40563
 Alpha  occ. eigenvalues --   -0.40086  -0.39790  -0.39060  -0.38055  -0.37381
 Alpha  occ. eigenvalues --   -0.36418  -0.35520  -0.34109  -0.33872  -0.26547
 Alpha  occ. eigenvalues --   -0.26252  -0.24607  -0.21663
 Alpha virt. eigenvalues --   -0.02962  -0.01079  -0.00682   0.02572   0.04883
 Alpha virt. eigenvalues --    0.05685   0.06090   0.07733   0.07937   0.08508
 Alpha virt. eigenvalues --    0.09287   0.09571   0.10353   0.10846   0.11822
 Alpha virt. eigenvalues --    0.12778   0.12859   0.13671   0.14165   0.14986
 Alpha virt. eigenvalues --    0.15588   0.15912   0.17436   0.18652   0.18939
 Alpha virt. eigenvalues --    0.20168   0.20868   0.22116   0.22658   0.23581
 Alpha virt. eigenvalues --    0.24473   0.24599   0.24977   0.25857   0.26371
 Alpha virt. eigenvalues --    0.27663   0.28184   0.29256   0.30272   0.30383
 Alpha virt. eigenvalues --    0.31284   0.31781   0.32644   0.33426   0.34471
 Alpha virt. eigenvalues --    0.34974   0.35707   0.36425   0.36958   0.37504
 Alpha virt. eigenvalues --    0.38099   0.39288   0.39673   0.39994   0.40922
 Alpha virt. eigenvalues --    0.41358   0.41569   0.42327   0.43014   0.43502
 Alpha virt. eigenvalues --    0.43922   0.44073   0.44664   0.44885   0.45447
 Alpha virt. eigenvalues --    0.45999   0.47016   0.47840   0.48061   0.48621
 Alpha virt. eigenvalues --    0.49517   0.49978   0.50690   0.51331   0.51591
 Alpha virt. eigenvalues --    0.52257   0.53774   0.54074   0.55476   0.57101
 Alpha virt. eigenvalues --    0.58441   0.59154   0.60915   0.61206   0.62059
 Alpha virt. eigenvalues --    0.63243   0.64432   0.66718   0.67119   0.68428
 Alpha virt. eigenvalues --    0.68850   0.70386   0.70451   0.71545   0.72306
 Alpha virt. eigenvalues --    0.74168   0.74773   0.75792   0.77872   0.78711
 Alpha virt. eigenvalues --    0.79448   0.80151   0.82352   0.83807   0.85054
 Alpha virt. eigenvalues --    0.85443   0.86379   0.88108   0.88716   0.89650
 Alpha virt. eigenvalues --    0.91278   0.92376   0.93093   0.94300   0.95841
 Alpha virt. eigenvalues --    0.96364   0.98467   0.98934   1.00508   1.01916
 Alpha virt. eigenvalues --    1.03499   1.05246   1.05782   1.07022   1.07609
 Alpha virt. eigenvalues --    1.08683   1.08755   1.09806   1.11587   1.13940
 Alpha virt. eigenvalues --    1.14953   1.16074   1.16953   1.18797   1.19175
 Alpha virt. eigenvalues --    1.20439   1.22217   1.23166   1.24416   1.26812
 Alpha virt. eigenvalues --    1.27352   1.29169   1.30269   1.31545   1.33593
 Alpha virt. eigenvalues --    1.36176   1.36739   1.37577   1.40150   1.41660
 Alpha virt. eigenvalues --    1.42598   1.42739   1.44788   1.45528   1.46235
 Alpha virt. eigenvalues --    1.47702   1.49327   1.50305   1.50789   1.51756
 Alpha virt. eigenvalues --    1.52551   1.53645   1.54473   1.54632   1.55919
 Alpha virt. eigenvalues --    1.56100   1.57440   1.58556   1.58870   1.59881
 Alpha virt. eigenvalues --    1.60602   1.61570   1.62235   1.63158   1.65046
 Alpha virt. eigenvalues --    1.66399   1.68164   1.68635   1.69421   1.71497
 Alpha virt. eigenvalues --    1.72239   1.72947   1.74564   1.75311   1.76750
 Alpha virt. eigenvalues --    1.77525   1.81107   1.82922   1.83735   1.86177
 Alpha virt. eigenvalues --    1.86810   1.89067   1.90006   1.91901   1.92896
 Alpha virt. eigenvalues --    1.93333   1.95470   1.96776   1.97767   1.98837
 Alpha virt. eigenvalues --    2.00767   2.01989   2.04293   2.05248   2.06455
 Alpha virt. eigenvalues --    2.06983   2.09613   2.11039   2.12698   2.13977
 Alpha virt. eigenvalues --    2.14587   2.16780   2.17493   2.17620   2.18957
 Alpha virt. eigenvalues --    2.20208   2.21588   2.23747   2.24610   2.25856
 Alpha virt. eigenvalues --    2.27178   2.28761   2.29559   2.31540   2.32314
 Alpha virt. eigenvalues --    2.34695   2.35830   2.37418   2.39904   2.40607
 Alpha virt. eigenvalues --    2.42093   2.42974   2.44558   2.46381   2.47624
 Alpha virt. eigenvalues --    2.49474   2.50953   2.51625   2.53227   2.53554
 Alpha virt. eigenvalues --    2.54047   2.54472   2.55716   2.57452   2.58377
 Alpha virt. eigenvalues --    2.59591   2.61431   2.61720   2.63124   2.64221
 Alpha virt. eigenvalues --    2.64571   2.64772   2.66224   2.67014   2.67936
 Alpha virt. eigenvalues --    2.69424   2.70235   2.71402   2.72731   2.73945
 Alpha virt. eigenvalues --    2.75376   2.76283   2.77925   2.78294   2.78838
 Alpha virt. eigenvalues --    2.80007   2.81293   2.82245   2.83199   2.85886
 Alpha virt. eigenvalues --    2.86191   2.87373   2.88369   2.90620   2.90818
 Alpha virt. eigenvalues --    2.91875   2.93064   2.94366   2.95847   2.97927
 Alpha virt. eigenvalues --    2.99958   3.01409   3.02216   3.03706   3.04326
 Alpha virt. eigenvalues --    3.04967   3.06425   3.07642   3.08249   3.10375
 Alpha virt. eigenvalues --    3.11416   3.11874   3.13181   3.13515   3.14460
 Alpha virt. eigenvalues --    3.14834   3.15871   3.16655   3.16921   3.18691
 Alpha virt. eigenvalues --    3.19584   3.20024   3.21902   3.22361   3.23517
 Alpha virt. eigenvalues --    3.26071   3.27214   3.27579   3.28685   3.28947
 Alpha virt. eigenvalues --    3.30897   3.31536   3.32091   3.33053   3.34236
 Alpha virt. eigenvalues --    3.35427   3.36509   3.37231   3.38230   3.39065
 Alpha virt. eigenvalues --    3.40261   3.40628   3.41919   3.42462   3.44494
 Alpha virt. eigenvalues --    3.46031   3.47970   3.48305   3.50031   3.51879
 Alpha virt. eigenvalues --    3.52425   3.52597   3.53193   3.54735   3.56436
 Alpha virt. eigenvalues --    3.57767   3.60221   3.60765   3.60896   3.62521
 Alpha virt. eigenvalues --    3.63951   3.67398   3.68454   3.68513   3.72863
 Alpha virt. eigenvalues --    3.73923   3.76998   3.77080   3.78757   3.79402
 Alpha virt. eigenvalues --    3.80609   3.84954   3.86492   3.87333   3.87424
 Alpha virt. eigenvalues --    3.88860   3.92438   3.93907   3.94530   3.99361
 Alpha virt. eigenvalues --    4.00742   4.03186   4.07491   4.08808   4.10440
 Alpha virt. eigenvalues --    4.12811   4.14012   4.16987   4.18874   4.20086
 Alpha virt. eigenvalues --    4.20822   4.22918   4.24170   4.25655   4.26957
 Alpha virt. eigenvalues --    4.28653   4.29354   4.30460   4.33262   4.34232
 Alpha virt. eigenvalues --    4.34381   4.36783   4.39859   4.41221   4.43135
 Alpha virt. eigenvalues --    4.43605   4.46828   4.48218   4.54850   4.57024
 Alpha virt. eigenvalues --    4.61011   4.64003   4.66398   4.70217   4.74669
 Alpha virt. eigenvalues --    4.76872   4.79211   4.81197   4.87550   4.92050
 Alpha virt. eigenvalues --    4.94649   4.98113   4.99261   5.04643   5.12445
 Alpha virt. eigenvalues --    5.14976   5.17880   5.19528   5.23543   5.24856
 Alpha virt. eigenvalues --    5.28605   5.32855   5.36606   5.39225   5.44983
 Alpha virt. eigenvalues --    5.49382   5.54460   5.55988   5.57462   5.65345
 Alpha virt. eigenvalues --    5.75784   5.77116   5.93235   5.97296   6.11299
 Alpha virt. eigenvalues --    6.31878   6.36047   6.41682   6.47923   6.80524
 Alpha virt. eigenvalues --    6.93456   7.05348  22.17793  22.40148  22.43529
 Alpha virt. eigenvalues --   22.50646  22.55532  22.65475  22.71650  22.72651
 Alpha virt. eigenvalues --   22.87027  22.90098  23.35470  32.73046  43.78574
          Condensed to atoms (all electrons):
               1          2          3          4          5          6
     1  C    5.380527   0.239111   0.126107  -0.162820   0.132218   0.249024
     2  C    0.239111   5.299081   0.286768   0.116053  -0.223806   0.087662
     3  C    0.126107   0.286768   5.064716   0.362396   0.101292  -0.161569
     4  C   -0.162820   0.116053   0.362396   5.074004   0.295326   0.076435
     5  C    0.132218  -0.223806   0.101292   0.295326   5.274603   0.299835
     6  C    0.249024   0.087662  -0.161569   0.076435   0.299835   5.262873
     7  H   -0.069179   0.450134  -0.070014   0.016518  -0.008271   0.025961
     8  H    0.015123  -0.060122   0.435966  -0.057964   0.013573  -0.003606
     9  H   -0.002098   0.011198  -0.054274   0.424976  -0.051885   0.012632
    10  H    0.011066  -0.003902   0.011946  -0.048470   0.446289  -0.074986
    11  N   -0.091840   0.006410  -0.001294   0.012765  -0.079211   0.305893
    12  C    0.009611  -0.001484   0.000821  -0.002039   0.005099  -0.085715
    13  H   -0.000429  -0.000522   0.000384  -0.003853   0.000417  -0.007692
    14  H   -0.000346   0.000146  -0.000039   0.000269   0.000965   0.008655
    15  H    0.002122   0.000783  -0.000600   0.002047  -0.010179   0.001308
    16  C    0.021453   0.004831  -0.000743   0.001651  -0.019770  -0.076315
    17  H    0.000516  -0.001375   0.000335  -0.002857   0.006736  -0.002910
    18  H   -0.001460   0.000069  -0.000038   0.000198   0.000094   0.012736
    19  H    0.006144   0.002629  -0.000368   0.000737  -0.000807  -0.012626
    20  C    0.314094  -0.100345   0.021577  -0.010719   0.030999  -0.090928
    21  H   -0.064454   0.009778   0.000081   0.000563  -0.001289   0.005751
    22  H   -0.019258   0.009428  -0.001877   0.000826  -0.002145  -0.014097
    23  C    0.006878  -0.051129   0.008475  -0.003297   0.007305   0.002200
    24  H    0.011218   0.000341  -0.000094   0.000027  -0.000184  -0.001340
    25  H    0.004058   0.007385  -0.000517   0.000270  -0.003084  -0.014131
    26  C   -0.011980   0.008020  -0.001299   0.000600  -0.001236  -0.003203
    27  H   -0.001780   0.003380  -0.000470   0.000198  -0.000402  -0.000891
    28  O   -0.018960   0.015401  -0.003885   0.000693  -0.000659  -0.001243
               7          8          9         10         11         12
     1  C   -0.069179   0.015123  -0.002098   0.011066  -0.091840   0.009611
     2  C    0.450134  -0.060122   0.011198  -0.003902   0.006410  -0.001484
     3  C   -0.070014   0.435966  -0.054274   0.011946  -0.001294   0.000821
     4  C    0.016518  -0.057964   0.424976  -0.048470   0.012765  -0.002039
     5  C   -0.008271   0.013573  -0.051885   0.446289  -0.079211   0.005099
     6  C    0.025961  -0.003606   0.012632  -0.074986   0.305893  -0.085715
     7  H    0.557069  -0.007790  -0.000276   0.000018  -0.000286   0.000024
     8  H   -0.007790   0.568332  -0.007445  -0.000264   0.000037   0.000000
     9  H   -0.000276  -0.007445   0.571197  -0.007182  -0.000340  -0.000045
    10  H    0.000018  -0.000264  -0.007182   0.568095  -0.006119   0.003150
    11  N   -0.000286   0.000037  -0.000340  -0.006119   6.681473   0.287849
    12  C    0.000024   0.000000  -0.000045   0.003150   0.287849   4.921820
    13  H   -0.000006   0.000002   0.000070   0.005631  -0.045754   0.403459
    14  H    0.000001   0.000000  -0.000003  -0.000167  -0.046790   0.406462
    15  H    0.000012  -0.000002  -0.000002  -0.002735  -0.040907   0.414500
    16  C    0.000082  -0.000012   0.000036  -0.000668   0.281094  -0.068219
    17  H   -0.000023   0.000002   0.000038   0.001311  -0.044729  -0.013878
    18  H    0.000003   0.000000  -0.000002  -0.000122  -0.047897  -0.005113
    19  H    0.000081  -0.000002  -0.000004  -0.000058  -0.037405   0.011742
    20  C   -0.020614  -0.000323   0.000160  -0.000118   0.023504  -0.002246
    21  H    0.005184  -0.000108   0.000001   0.000015   0.000344  -0.000086
    22  H    0.000923   0.000012  -0.000003  -0.000035  -0.002164   0.000179
    23  C   -0.006677   0.000177  -0.000031   0.000051  -0.008280   0.002535
    24  H    0.000029  -0.000002   0.000000  -0.000002  -0.000267  -0.000113
    25  H    0.000171  -0.000002   0.000006   0.000023   0.020419  -0.002085
    26  C    0.000259  -0.000027   0.000006  -0.000004   0.003155  -0.000199
    27  H    0.000639  -0.000008   0.000001  -0.000002   0.000025  -0.000027
    28  O    0.015280  -0.000167   0.000002  -0.000001  -0.000033  -0.000008
              13         14         15         16         17         18
     1  C   -0.000429  -0.000346   0.002122   0.021453   0.000516  -0.001460
     2  C   -0.000522   0.000146   0.000783   0.004831  -0.001375   0.000069
     3  C    0.000384  -0.000039  -0.000600  -0.000743   0.000335  -0.000038
     4  C   -0.003853   0.000269   0.002047   0.001651  -0.002857   0.000198
     5  C    0.000417   0.000965  -0.010179  -0.019770   0.006736   0.000094
     6  C   -0.007692   0.008655   0.001308  -0.076315  -0.002910   0.012736
     7  H   -0.000006   0.000001   0.000012   0.000082  -0.000023   0.000003
     8  H    0.000002   0.000000  -0.000002  -0.000012   0.000002   0.000000
     9  H    0.000070  -0.000003  -0.000002   0.000036   0.000038  -0.000002
    10  H    0.005631  -0.000167  -0.002735  -0.000668   0.001311  -0.000122
    11  N   -0.045754  -0.046790  -0.040907   0.281094  -0.044729  -0.047897
    12  C    0.403459   0.406462   0.414500  -0.068219  -0.013878  -0.005113
    13  H    0.638085  -0.046529  -0.042381  -0.018042   0.022259  -0.003799
    14  H   -0.046529   0.574033  -0.015344  -0.001546  -0.004108   0.004799
    15  H   -0.042381  -0.015344   0.550850   0.012834  -0.001431   0.000504
    16  C   -0.018042  -0.001546   0.012834   4.927802   0.391050   0.405833
    17  H    0.022259  -0.004108  -0.001431   0.391050   0.626748  -0.043594
    18  H   -0.003799   0.004799   0.000504   0.405833  -0.043594   0.584346
    19  H   -0.001310   0.000605  -0.000264   0.417089  -0.037368  -0.019368
    20  C    0.000795  -0.000589  -0.001203  -0.020071   0.003338  -0.000126
    21  H    0.000006  -0.000001   0.000004   0.000354   0.000010  -0.000037
    22  H   -0.000071   0.000100   0.000064   0.000770  -0.000172  -0.000528
    23  C   -0.000225   0.000473   0.000809  -0.000379  -0.000045   0.000017
    24  H   -0.000001   0.000009   0.000021   0.000279  -0.000005  -0.000050
    25  H    0.000672  -0.000987  -0.001010   0.000060   0.000249  -0.000324
    26  C    0.000038  -0.000049  -0.000105  -0.000175   0.000028  -0.000021
    27  H    0.000000   0.000004   0.000019   0.000006   0.000000   0.000002
    28  O    0.000000   0.000000   0.000003   0.000009   0.000000   0.000000
              19         20         21         22         23         24
     1  C    0.006144   0.314094  -0.064454  -0.019258   0.006878   0.011218
     2  C    0.002629  -0.100345   0.009778   0.009428  -0.051129   0.000341
     3  C   -0.000368   0.021577   0.000081  -0.001877   0.008475  -0.000094
     4  C    0.000737  -0.010719   0.000563   0.000826  -0.003297   0.000027
     5  C   -0.000807   0.030999  -0.001289  -0.002145   0.007305  -0.000184
     6  C   -0.012626  -0.090928   0.005751  -0.014097   0.002200  -0.001340
     7  H    0.000081  -0.020614   0.005184   0.000923  -0.006677   0.000029
     8  H   -0.000002  -0.000323  -0.000108   0.000012   0.000177  -0.000002
     9  H   -0.000004   0.000160   0.000001  -0.000003  -0.000031   0.000000
    10  H   -0.000058  -0.000118   0.000015  -0.000035   0.000051  -0.000002
    11  N   -0.037405   0.023504   0.000344  -0.002164  -0.008280  -0.000267
    12  C    0.011742  -0.002246  -0.000086   0.000179   0.002535  -0.000113
    13  H   -0.001310   0.000795   0.000006  -0.000071  -0.000225  -0.000001
    14  H    0.000605  -0.000589  -0.000001   0.000100   0.000473   0.000009
    15  H   -0.000264  -0.001203   0.000004   0.000064   0.000809   0.000021
    16  C    0.417089  -0.020071   0.000354   0.000770  -0.000379   0.000279
    17  H   -0.037368   0.003338   0.000010  -0.000172  -0.000045  -0.000005
    18  H   -0.019368  -0.000126  -0.000037  -0.000528   0.000017  -0.000050
    19  H    0.554039  -0.013082  -0.000098   0.004421   0.000808  -0.000062
    20  C   -0.013082   4.989445   0.430842   0.393439   0.187468  -0.025102
    21  H   -0.000098   0.430842   0.565597  -0.033010  -0.037137  -0.001227
    22  H    0.004421   0.393439  -0.033010   0.626253  -0.048265  -0.004507
    23  C    0.000808   0.187468  -0.037137  -0.048265   5.647770   0.349966
    24  H   -0.000062  -0.025102  -0.001227  -0.004507   0.349966   0.592016
    25  H   -0.000337  -0.044636   0.006188  -0.001490   0.359294  -0.022801
    26  C   -0.000116  -0.005400  -0.005031   0.006649   0.136536  -0.015949
    27  H    0.000000   0.018712   0.000813  -0.000056  -0.215291   0.006307
    28  O   -0.000001   0.022867   0.006775   0.001065  -0.163169   0.003312
              25         26         27         28
     1  C    0.004058  -0.011980  -0.001780  -0.018960
     2  C    0.007385   0.008020   0.003380   0.015401
     3  C   -0.000517  -0.001299  -0.000470  -0.003885
     4  C    0.000270   0.000600   0.000198   0.000693
     5  C   -0.003084  -0.001236  -0.000402  -0.000659
     6  C   -0.014131  -0.003203  -0.000891  -0.001243
     7  H    0.000171   0.000259   0.000639   0.015280
     8  H   -0.000002  -0.000027  -0.000008  -0.000167
     9  H    0.000006   0.000006   0.000001   0.000002
    10  H    0.000023  -0.000004  -0.000002  -0.000001
    11  N    0.020419   0.003155   0.000025  -0.000033
    12  C   -0.002085  -0.000199  -0.000027  -0.000008
    13  H    0.000672   0.000038   0.000000   0.000000
    14  H   -0.000987  -0.000049   0.000004   0.000000
    15  H   -0.001010  -0.000105   0.000019   0.000003
    16  C    0.000060  -0.000175   0.000006   0.000009
    17  H    0.000249   0.000028   0.000000   0.000000
    18  H   -0.000324  -0.000021   0.000002   0.000000
    19  H   -0.000337  -0.000116   0.000000  -0.000001
    20  C   -0.044636  -0.005400   0.018712   0.022867
    21  H    0.006188  -0.005031   0.000813   0.006775
    22  H   -0.001490   0.006649  -0.000056   0.001065
    23  C    0.359294   0.136536  -0.215291  -0.163169
    24  H   -0.022801  -0.015949   0.006307   0.003312
    25  H    0.558387  -0.005430   0.008589   0.004631
    26  C   -0.005430   4.694531   0.451856   0.649261
    27  H    0.008589   0.451856   0.713194  -0.053952
    28  O    0.004631   0.649261  -0.053952   7.799256
 Mulliken charges:
               1
     1  C   -0.084664
     2  C   -0.115922
     3  C   -0.123782
     4  C   -0.094536
     5  C   -0.211825
     6  C    0.200287
     7  H    0.110747
     8  H    0.104620
     9  H    0.103267
    10  H    0.097241
    11  N   -0.169653
    12  C   -0.285995
    13  H    0.098798
    14  H    0.119978
    15  H    0.130284
    16  C   -0.259291
    17  H    0.099876
    18  H    0.113878
    19  H    0.124984
    20  C   -0.101738
    21  H    0.110172
    22  H    0.083549
    23  C   -0.176837
    24  H    0.108183
    25  H    0.126433
    26  C    0.099288
    27  H    0.069138
    28  O   -0.276476
 Sum of Mulliken charges =   0.00000
 Mulliken charges with hydrogens summed into heavy atoms:
               1
     1  C   -0.084664
     2  C   -0.005175
     3  C   -0.019162
     4  C    0.008731
     5  C   -0.114585
     6  C    0.200287
    11  N   -0.169653
    12  C    0.063064
    16  C    0.079447
    20  C    0.091982
    23  C    0.057779
    26  C    0.168425
    28  O   -0.276476
 Electronic spatial extent (au):  <R**2>=           2508.2761
 Charge=              0.0000 electrons
 Dipole moment (field-independent basis, Debye):
    X=              2.1763    Y=             -2.2810    Z=             -0.2853  Tot=              3.1655
 Quadrupole moment (field-independent basis, Debye-Ang):
   XX=            -84.4091   YY=            -73.4931   ZZ=            -78.1938
   XY=              3.3276   XZ=             -2.0177   YZ=              0.0078
 Traceless Quadrupole moment (field-independent basis, Debye-Ang):
   XX=             -5.7105   YY=              5.2056   ZZ=              0.5049
   XY=              3.3276   XZ=             -2.0177   YZ=              0.0078
 Octapole moment (field-independent basis, Debye-Ang**2):
  XXX=             34.2533  YYY=              0.6027  ZZZ=             -3.8383  XYY=             -8.4516
  XXY=            -18.4859  XXZ=             -2.1408  XZZ=             -6.1069  YZZ=             -9.9521
  YYZ=             -3.4088  XYZ=             -8.3975
 Hexadecapole moment (field-independent basis, Debye-Ang**3):
 XXXX=          -1919.2715 YYYY=          -1181.9383 ZZZZ=           -400.9821 XXXY=             41.3293
 XXXZ=            -17.3984 YYYX=             -5.1121 YYYZ=            -12.6757 ZZZX=              8.2212
 ZZZY=              0.6021 XXYY=           -468.7053 XXZZ=           -348.6378 YYZZ=           -284.0892
 XXYZ=              7.4315 YYXZ=             -9.4315 ZZXY=             -0.7736
 N-N= 7.953540412352D+02 E-N=-2.889198707016D+03  KE= 5.555166242000D+02
 Running external command "gaunbo6 R"
         input file       "/home/aloke/aloke/prakash/Gau-1359.EIn"
         output file      "/home/aloke/aloke/prakash/Gau-1359.EOu"
         message file     "/home/aloke/aloke/prakash/Gau-1359.EMs"
         fchk file        "/home/aloke/aloke/prakash/Gau-1359.EFC"
         mat. el file     "/home/aloke/aloke/prakash/Gau-1359.EUF"

 Writing Wrt12E file "/home/aloke/aloke/prakash/Gau-1359.EUF"
 Gaussian matrix elements                                         Version   1 NLab= 7 Len12L=8 Len4L=8
 Write GAUSSIAN SCALARS               from file   501 offset           0 to matrix element file.
 Write OVERLAP                        from file   514 offset           0 to matrix element file.
 Write CORE HAMILTONIAN ALPHA         from file   515 offset           0 to matrix element file.
 Write CORE HAMILTONIAN BETA          from file   515 offset      121771 to matrix element file.
 Write KINETIC ENERGY                 from file   516 offset           0 to matrix element file.
 Write ORTHOGONAL BASIS               from file   685 offset           0 to matrix element file.
 Write DIPOLE INTEGRALS               from file   518 offset           0 to matrix element file.
 Array DIP VEL INTEGRALS               on  file    572 does not exist.
 Array R X DEL INTEGRALS               on  file    572 does not exist.
 Write ALPHA ORBITAL ENERGIES         from file     0 offset           0 to matrix element file.
 Write ALPHA MO COEFFICIENTS          from file 10524 offset           0 to matrix element file.
 Write ALPHA DENSITY MATRIX           from file     0 offset           0 to matrix element file.
 Write ALPHA SCF DENSITY MATRIX       from file 10528 offset           0 to matrix element file.
 Write ALPHA FOCK MATRIX              from file 10536 offset           0 to matrix element file.
 No 2e integrals to process.
 Perform NBO analysis...

 *********************************** NBO 6.0 ***********************************
             N A T U R A L   A T O M I C   O R B I T A L   A N D
          N A T U R A L   B O N D   O R B I T A L   A N A L Y S I S
 ************************* Aloke Das Software (101058) *************************
  (c) Copyright 1996-2016 Board of Regents of the University of Wisconsin System
      on behalf of the Theoretical Chemistry Institute.  All rights reserved.

          Cite this program as:

          NBO 6.0.  E. D. Glendening, J. K. Badenhoop, A. E. Reed,
          J. E. Carpenter, J. A. Bohmann, C. M. Morales, C. R. Landis,
          and F. Weinhold (Theoretical Chemistry Institute, University
          of Wisconsin, Madison, WI, 2013); http://nbo6.chem.wisc.edu/

       /E2PERT / : Analyze NBO Fock matrix
                   Print threshold set to 0.1
       /AONBO  / : Checkpoint the AO to NBO transformation
                   NBOs sorted by occupancy

 Filename set to /home/aloke/aloke/prakash/Gau-1359

 Job title:  Energy Optimisation and Frequency calculation


 NATURAL POPULATIONS:  Natural atomic orbital occupancies

  NAO Atom No lang   Type(AO)    Occupancy      Energy
 -------------------------------------------------------
   1    C  1  s      Cor( 1s)     1.99999     -10.17744
   2    C  1  s      Val( 2s)     0.92303      -0.09644
   3    C  1  s      Ryd( 3s)     0.00086       1.25777
   4    C  1  s      Ryd( 4s)     0.00017       2.05298
   5    C  1  s      Ryd( 5s)     0.00000      19.48253
   6    C  1  px     Val( 2p)     1.03277      -0.01926
   7    C  1  px     Ryd( 3p)     0.00397       0.95537
   8    C  1  px     Ryd( 4p)     0.00031       2.06073
   9    C  1  py     Val( 2p)     1.04592      -0.01098
  10    C  1  py     Ryd( 3p)     0.00500       1.02678
  11    C  1  py     Ryd( 4p)     0.00042       2.17152
  12    C  1  pz     Val( 2p)     1.01232      -0.07979
  13    C  1  pz     Ryd( 3p)     0.00218       0.79382
  14    C  1  pz     Ryd( 4p)     0.00013       1.63346
  15    C  1  dxy    Ryd( 3d)     0.00071       2.65546
  16    C  1  dxy    Ryd( 4d)     0.00060       3.89006
  17    C  1  dxz    Ryd( 3d)     0.00068       2.67632
  18    C  1  dxz    Ryd( 4d)     0.00016       3.57418
  19    C  1  dyz    Ryd( 3d)     0.00035       2.05643
  20    C  1  dyz    Ryd( 4d)     0.00034       3.39339
  21    C  1  dx2y2  Ryd( 3d)     0.00096       2.72209
  22    C  1  dx2y2  Ryd( 4d)     0.00056       3.92036
  23    C  1  dz2    Ryd( 3d)     0.00064       2.82340
  24    C  1  dz2    Ryd( 4d)     0.00009       3.43305
  25    C  1  f(0)   Ryd( 4f)     0.00036       3.38631
  26    C  1  f(c1)  Ryd( 4f)     0.00035       3.34625
  27    C  1  f(s1)  Ryd( 4f)     0.00026       3.38455
  28    C  1  f(c2)  Ryd( 4f)     0.00022       3.49898
  29    C  1  f(s2)  Ryd( 4f)     0.00024       3.49234
  30    C  1  f(c3)  Ryd( 4f)     0.00054       3.81370
  31    C  1  f(s3)  Ryd( 4f)     0.00014       3.73846

  32    C  2  s      Cor( 1s)     1.99999     -10.16632
  33    C  2  s      Val( 2s)     0.97282      -0.11048
  34    C  2  s      Ryd( 3s)     0.00071       1.56638
  35    C  2  s      Ryd( 4s)     0.00007       1.67933
  36    C  2  s      Ryd( 5s)     0.00000      21.17970
  37    C  2  px     Val( 2p)     1.13730      -0.04139
  38    C  2  px     Ryd( 3p)     0.00396       1.16148
  39    C  2  px     Ryd( 4p)     0.00015       1.87992
  40    C  2  py     Val( 2p)     1.04301      -0.00201
  41    C  2  py     Ryd( 3p)     0.00280       0.95218
  42    C  2  py     Ryd( 4p)     0.00016       1.94957
  43    C  2  pz     Val( 2p)     1.01544      -0.08569
  44    C  2  pz     Ryd( 3p)     0.00200       0.82077
  45    C  2  pz     Ryd( 4p)     0.00016       1.40149
  46    C  2  dxy    Ryd( 3d)     0.00142       2.13156
  47    C  2  dxy    Ryd( 4d)     0.00025       3.75423
  48    C  2  dxz    Ryd( 3d)     0.00078       1.99525
  49    C  2  dxz    Ryd( 4d)     0.00013       3.13683
  50    C  2  dyz    Ryd( 3d)     0.00054       1.86001
  51    C  2  dyz    Ryd( 4d)     0.00016       3.26243
  52    C  2  dx2y2  Ryd( 3d)     0.00074       2.15196
  53    C  2  dx2y2  Ryd( 4d)     0.00062       3.86403
  54    C  2  dz2    Ryd( 3d)     0.00075       1.96797
  55    C  2  dz2    Ryd( 4d)     0.00004       3.15685
  56    C  2  f(0)   Ryd( 4f)     0.00042       3.34888
  57    C  2  f(c1)  Ryd( 4f)     0.00024       3.16478
  58    C  2  f(s1)  Ryd( 4f)     0.00024       3.44222
  59    C  2  f(c2)  Ryd( 4f)     0.00031       3.52717
  60    C  2  f(s2)  Ryd( 4f)     0.00015       3.41732
  61    C  2  f(c3)  Ryd( 4f)     0.00050       3.81574
  62    C  2  f(s3)  Ryd( 4f)     0.00019       3.64657

  63    C  3  s      Cor( 1s)     1.99999     -10.16650
  64    C  3  s      Val( 2s)     0.97546      -0.11694
  65    C  3  s      Ryd( 3s)     0.00071       1.54988
  66    C  3  s      Ryd( 4s)     0.00002       2.15383
  67    C  3  s      Ryd( 5s)     0.00000      19.62633
  68    C  3  px     Val( 2p)     1.05983      -0.02676
  69    C  3  px     Ryd( 3p)     0.00283       0.92161
  70    C  3  px     Ryd( 4p)     0.00016       1.76149
  71    C  3  py     Val( 2p)     1.14662      -0.03088
  72    C  3  py     Ryd( 3p)     0.00398       1.09876
  73    C  3  py     Ryd( 4p)     0.00015       1.99001
  74    C  3  pz     Val( 2p)     1.01463      -0.08072
  75    C  3  pz     Ryd( 3p)     0.00204       0.72457
  76    C  3  pz     Ryd( 4p)     0.00018       1.39937
  77    C  3  dxy    Ryd( 3d)     0.00088       2.13075
  78    C  3  dxy    Ryd( 4d)     0.00044       3.64745
  79    C  3  dxz    Ryd( 3d)     0.00081       2.04336
  80    C  3  dxz    Ryd( 4d)     0.00008       3.27937
  81    C  3  dyz    Ryd( 3d)     0.00056       1.93311
  82    C  3  dyz    Ryd( 4d)     0.00008       2.95580
  83    C  3  dx2y2  Ryd( 3d)     0.00101       2.19824
  84    C  3  dx2y2  Ryd( 4d)     0.00033       3.61599
  85    C  3  dz2    Ryd( 3d)     0.00062       2.02943
  86    C  3  dz2    Ryd( 4d)     0.00009       3.05786
  87    C  3  f(0)   Ryd( 4f)     0.00027       3.33212
  88    C  3  f(c1)  Ryd( 4f)     0.00034       3.34234
  89    C  3  f(s1)  Ryd( 4f)     0.00026       3.38413
  90    C  3  f(c2)  Ryd( 4f)     0.00030       3.44077
  91    C  3  f(s2)  Ryd( 4f)     0.00025       3.43628
  92    C  3  f(c3)  Ryd( 4f)     0.00042       3.81461
  93    C  3  f(s3)  Ryd( 4f)     0.00011       3.57021

  94    C  4  s      Cor( 1s)     1.99999     -10.17053
  95    C  4  s      Val( 2s)     0.97428      -0.11883
  96    C  4  s      Ryd( 3s)     0.00071       1.53977
  97    C  4  s      Ryd( 4s)     0.00002       2.53440
  98    C  4  s      Ryd( 5s)     0.00000      19.88905
  99    C  4  px     Val( 2p)     1.06890      -0.03172
 100    C  4  px     Ryd( 3p)     0.00323       0.94093
 101    C  4  px     Ryd( 4p)     0.00016       1.77529
 102    C  4  py     Val( 2p)     1.11524      -0.02588
 103    C  4  py     Ryd( 3p)     0.00400       1.05574
 104    C  4  py     Ryd( 4p)     0.00014       1.95043
 105    C  4  pz     Val( 2p)     1.02534      -0.08736
 106    C  4  pz     Ryd( 3p)     0.00205       0.76584
 107    C  4  pz     Ryd( 4p)     0.00016       1.40602
 108    C  4  dxy    Ryd( 3d)     0.00064       2.12766
 109    C  4  dxy    Ryd( 4d)     0.00053       3.69579
 110    C  4  dxz    Ryd( 3d)     0.00090       2.07450
 111    C  4  dxz    Ryd( 4d)     0.00008       3.14091
 112    C  4  dyz    Ryd( 3d)     0.00034       1.97327
 113    C  4  dyz    Ryd( 4d)     0.00020       2.97842
 114    C  4  dx2y2  Ryd( 3d)     0.00119       2.24743
 115    C  4  dx2y2  Ryd( 4d)     0.00022       3.59457
 116    C  4  dz2    Ryd( 3d)     0.00068       2.03316
 117    C  4  dz2    Ryd( 4d)     0.00004       2.97801
 118    C  4  f(0)   Ryd( 4f)     0.00037       3.36499
 119    C  4  f(c1)  Ryd( 4f)     0.00030       3.29127
 120    C  4  f(s1)  Ryd( 4f)     0.00020       3.30935
 121    C  4  f(c2)  Ryd( 4f)     0.00023       3.44714
 122    C  4  f(s2)  Ryd( 4f)     0.00028       3.49730
 123    C  4  f(c3)  Ryd( 4f)     0.00043       3.79607
 124    C  4  f(s3)  Ryd( 4f)     0.00016       3.59759

 125    C  5  s      Cor( 1s)     1.99999     -10.16958
 126    C  5  s      Val( 2s)     0.97355      -0.11713
 127    C  5  s      Ryd( 3s)     0.00102       1.61421
 128    C  5  s      Ryd( 4s)     0.00008       1.41812
 129    C  5  s      Ryd( 5s)     0.00000      20.70063
 130    C  5  px     Val( 2p)     1.13323      -0.04872
 131    C  5  px     Ryd( 3p)     0.00339       1.11015
 132    C  5  px     Ryd( 4p)     0.00034       1.77876
 133    C  5  py     Val( 2p)     1.05745      -0.01514
 134    C  5  py     Ryd( 3p)     0.00242       0.93421
 135    C  5  py     Ryd( 4p)     0.00018       1.95753
 136    C  5  pz     Val( 2p)     1.06217      -0.09324
 137    C  5  pz     Ryd( 3p)     0.00215       0.78823
 138    C  5  pz     Ryd( 4p)     0.00020       1.41464
 139    C  5  dxy    Ryd( 3d)     0.00161       2.14613
 140    C  5  dxy    Ryd( 4d)     0.00021       3.70964
 141    C  5  dxz    Ryd( 3d)     0.00072       2.06301
 142    C  5  dxz    Ryd( 4d)     0.00014       3.15592
 143    C  5  dyz    Ryd( 3d)     0.00055       1.85825
 144    C  5  dyz    Ryd( 4d)     0.00017       3.26791
 145    C  5  dx2y2  Ryd( 3d)     0.00065       2.17880
 146    C  5  dx2y2  Ryd( 4d)     0.00051       3.83263
 147    C  5  dz2    Ryd( 3d)     0.00084       1.97114
 148    C  5  dz2    Ryd( 4d)     0.00003       3.15338
 149    C  5  f(0)   Ryd( 4f)     0.00041       3.35867
 150    C  5  f(c1)  Ryd( 4f)     0.00028       3.15055
 151    C  5  f(s1)  Ryd( 4f)     0.00028       3.41945
 152    C  5  f(c2)  Ryd( 4f)     0.00033       3.52457
 153    C  5  f(s2)  Ryd( 4f)     0.00014       3.42238
 154    C  5  f(c3)  Ryd( 4f)     0.00050       3.78795
 155    C  5  f(s3)  Ryd( 4f)     0.00019       3.64406

 156    C  6  s      Cor( 1s)     1.99999     -10.20395
 157    C  6  s      Val( 2s)     0.87859      -0.08642
 158    C  6  s      Ryd( 3s)     0.00109       1.39258
 159    C  6  s      Ryd( 4s)     0.00017       1.74010
 160    C  6  s      Ryd( 5s)     0.00000      20.85329
 161    C  6  px     Val( 2p)     1.02528      -0.02546
 162    C  6  px     Ryd( 3p)     0.00335       0.94495
 163    C  6  px     Ryd( 4p)     0.00037       1.96854
 164    C  6  py     Val( 2p)     0.91464       0.00753
 165    C  6  py     Ryd( 3p)     0.00459       1.11455
 166    C  6  py     Ryd( 4p)     0.00053       1.94285
 167    C  6  pz     Val( 2p)     1.01854      -0.08648
 168    C  6  pz     Ryd( 3p)     0.00297       0.79351
 169    C  6  pz     Ryd( 4p)     0.00016       1.62970
 170    C  6  dxy    Ryd( 4d)     0.00073       3.53615
 171    C  6  dxy    Ryd( 3d)     0.00081       3.57149
 172    C  6  dxz    Ryd( 3d)     0.00059       2.96131
 173    C  6  dxz    Ryd( 4d)     0.00019       3.05271
 174    C  6  dyz    Ryd( 3d)     0.00046       2.69350
 175    C  6  dyz    Ryd( 4d)     0.00037       2.95143
 176    C  6  dx2y2  Ryd( 3d)     0.00094       3.47279
 177    C  6  dx2y2  Ryd( 4d)     0.00071       3.52646
 178    C  6  dz2    Ryd( 3d)     0.00044       3.34923
 179    C  6  dz2    Ryd( 4d)     0.00014       2.86241
 180    C  6  f(0)   Ryd( 4f)     0.00028       3.44946
 181    C  6  f(c1)  Ryd( 4f)     0.00030       3.36157
 182    C  6  f(s1)  Ryd( 4f)     0.00019       3.43983
 183    C  6  f(c2)  Ryd( 4f)     0.00027       3.53525
 184    C  6  f(s2)  Ryd( 4f)     0.00023       3.58531
 185    C  6  f(c3)  Ryd( 4f)     0.00046       3.81421
 186    C  6  f(s3)  Ryd( 4f)     0.00010       3.78328

 187    H  7  s      Val( 1s)     0.78082       0.06809
 188    H  7  s      Ryd( 2s)     0.00057       0.85673
 189    H  7  s      Ryd( 3s)     0.00011       1.86537
 190    H  7  px     Ryd( 2p)     0.00071       2.76960
 191    H  7  py     Ryd( 2p)     0.00007       2.57739
 192    H  7  pz     Ryd( 2p)     0.00020       2.27998

 193    H  8  s      Val( 1s)     0.78920       0.05663
 194    H  8  s      Ryd( 2s)     0.00033       0.61178
 195    H  8  s      Ryd( 3s)     0.00009       2.05121
 196    H  8  px     Ryd( 2p)     0.00019       2.51207
 197    H  8  py     Ryd( 2p)     0.00066       2.78412
 198    H  8  pz     Ryd( 2p)     0.00012       2.20670

 199    H  9  s      Val( 1s)     0.79138       0.05263
 200    H  9  s      Ryd( 2s)     0.00041       0.62322
 201    H  9  s      Ryd( 3s)     0.00009       2.02739
 202    H  9  px     Ryd( 2p)     0.00024       2.53914
 203    H  9  py     Ryd( 2p)     0.00048       2.73134
 204    H  9  pz     Ryd( 2p)     0.00020       2.26595

 205    H 10  s      Val( 1s)     0.79147       0.05106
 206    H 10  s      Ryd( 2s)     0.00115       0.68302
 207    H 10  s      Ryd( 3s)     0.00009       1.98057
 208    H 10  px     Ryd( 2p)     0.00066       2.76734
 209    H 10  py     Ryd( 2p)     0.00008       2.57234
 210    H 10  pz     Ryd( 2p)     0.00026       2.30268

 211    N 11  s      Cor( 1s)     1.99999     -14.32144
 212    N 11  s      Val( 2s)     1.25614      -0.40836
 213    N 11  s      Ryd( 3s)     0.00108       1.47818
 214    N 11  s      Ryd( 4s)     0.00007       5.59356
 215    N 11  s      Ryd( 5s)     0.00000      25.43685
 216    N 11  px     Val( 2p)     1.54411      -0.20215
 217    N 11  px     Ryd( 3p)     0.00657       0.87131
 218    N 11  px     Ryd( 4p)     0.00017       2.73597
 219    N 11  py     Val( 2p)     1.41190      -0.18433
 220    N 11  py     Ryd( 3p)     0.00475       0.69126
 221    N 11  py     Ryd( 4p)     0.00023       2.89612
 222    N 11  pz     Val( 2p)     1.20439      -0.17246
 223    N 11  pz     Ryd( 3p)     0.00255       0.82487
 224    N 11  pz     Ryd( 4p)     0.00012       2.88791
 225    N 11  dxy    Ryd( 3d)     0.00167       2.61891
 226    N 11  dxy    Ryd( 4d)     0.00013       5.21991
 227    N 11  dxz    Ryd( 3d)     0.00264       2.16005
 228    N 11  dxz    Ryd( 4d)     0.00009       5.10094
 229    N 11  dyz    Ryd( 4d)     0.00020       1.92740
 230    N 11  dyz    Ryd( 3d)     0.00024       4.94087
 231    N 11  dx2y2  Ryd( 3d)     0.00218       2.05360
 232    N 11  dx2y2  Ryd( 4d)     0.00012       5.07852
 233    N 11  dz2    Ryd( 3d)     0.00136       2.07717
 234    N 11  dz2    Ryd( 4d)     0.00015       5.15333
 235    N 11  f(0)   Ryd( 4f)     0.00003       4.79444
 236    N 11  f(c1)  Ryd( 4f)     0.00021       4.86477
 237    N 11  f(s1)  Ryd( 4f)     0.00010       4.76017
 238    N 11  f(c2)  Ryd( 4f)     0.00001       4.74135
 239    N 11  f(s2)  Ryd( 4f)     0.00010       4.67441
 240    N 11  f(c3)  Ryd( 4f)     0.00014       4.60998
 241    N 11  f(s3)  Ryd( 4f)     0.00016       4.76101

 242    C 12  s      Cor( 1s)     1.99999     -10.19638
 243    C 12  s      Val( 2s)     1.08348      -0.21407
 244    C 12  s      Ryd( 3s)     0.00088       1.42772
 245    C 12  s      Ryd( 4s)     0.00003       1.69137
 246    C 12  s      Ryd( 5s)     0.00000      21.67225
 247    C 12  px     Val( 2p)     1.10372      -0.09243
 248    C 12  px     Ryd( 3p)     0.00123       0.65880
 249    C 12  px     Ryd( 4p)     0.00022       1.48871
 250    C 12  py     Val( 2p)     1.18993      -0.10998
 251    C 12  py     Ryd( 3p)     0.00172       0.75535
 252    C 12  py     Ryd( 4p)     0.00024       1.58839
 253    C 12  pz     Val( 2p)     1.00756      -0.08508
 254    C 12  pz     Ryd( 3p)     0.00160       0.63599
 255    C 12  pz     Ryd( 4p)     0.00011       1.57507
 256    C 12  dxy    Ryd( 3d)     0.00079       2.08746
 257    C 12  dxy    Ryd( 4d)     0.00006       2.66138
 258    C 12  dxz    Ryd( 3d)     0.00109       2.74856
 259    C 12  dxz    Ryd( 4d)     0.00009       2.88079
 260    C 12  dyz    Ryd( 3d)     0.00057       2.08231
 261    C 12  dyz    Ryd( 4d)     0.00005       2.52857
 262    C 12  dx2y2  Ryd( 3d)     0.00130       2.13573
 263    C 12  dx2y2  Ryd( 4d)     0.00004       2.82111
 264    C 12  dz2    Ryd( 3d)     0.00105       2.32592
 265    C 12  dz2    Ryd( 4d)     0.00008       2.92705
 266    C 12  f(0)   Ryd( 4f)     0.00002       3.42212
 267    C 12  f(c1)  Ryd( 4f)     0.00043       3.74396
 268    C 12  f(s1)  Ryd( 4f)     0.00011       3.57041
 269    C 12  f(c2)  Ryd( 4f)     0.00003       3.35416
 270    C 12  f(s2)  Ryd( 4f)     0.00003       3.43117
 271    C 12  f(c3)  Ryd( 4f)     0.00002       3.25071
 272    C 12  f(s3)  Ryd( 4f)     0.00030       3.66454

 273    H 13  s      Val( 1s)     0.83585       0.01018
 274    H 13  s      Ryd( 2s)     0.00311       0.53922
 275    H 13  s      Ryd( 3s)     0.00004       2.11047
 276    H 13  px     Ryd( 2p)     0.00065       2.71561
 277    H 13  py     Ryd( 2p)     0.00020       2.24974
 278    H 13  pz     Ryd( 2p)     0.00010       2.17356

 279    H 14  s      Val( 1s)     0.80357       0.02414
 280    H 14  s      Ryd( 2s)     0.00071       0.70635
 281    H 14  s      Ryd( 3s)     0.00004       1.80804
 282    H 14  px     Ryd( 2p)     0.00008       2.15727
 283    H 14  py     Ryd( 2p)     0.00086       2.73871
 284    H 14  pz     Ryd( 2p)     0.00010       2.20219

 285    H 15  s      Val( 1s)     0.79543       0.02829
 286    H 15  s      Ryd( 2s)     0.00052       0.51929
 287    H 15  s      Ryd( 3s)     0.00005       2.05044
 288    H 15  px     Ryd( 2p)     0.00021       2.29536
 289    H 15  py     Ryd( 2p)     0.00013       2.20609
 290    H 15  pz     Ryd( 2p)     0.00054       2.74307

 291    C 16  s      Cor( 1s)     1.99999     -10.19717
 292    C 16  s      Val( 2s)     1.08745      -0.21610
 293    C 16  s      Ryd( 3s)     0.00097       1.34099
 294    C 16  s      Ryd( 4s)     0.00004       1.82738
 295    C 16  s      Ryd( 5s)     0.00000      21.65536
 296    C 16  px     Val( 2p)     1.13475      -0.10019
 297    C 16  px     Ryd( 3p)     0.00121       0.63608
 298    C 16  px     Ryd( 4p)     0.00025       1.50171
 299    C 16  py     Val( 2p)     1.17106      -0.10717
 300    C 16  py     Ryd( 3p)     0.00139       0.71922
 301    C 16  py     Ryd( 4p)     0.00018       1.52871
 302    C 16  pz     Val( 2p)     0.98629      -0.08147
 303    C 16  pz     Ryd( 3p)     0.00142       0.63077
 304    C 16  pz     Ryd( 4p)     0.00013       1.54223
 305    C 16  dxy    Ryd( 3d)     0.00085       2.09167
 306    C 16  dxy    Ryd( 4d)     0.00006       2.71435
 307    C 16  dxz    Ryd( 3d)     0.00132       2.48877
 308    C 16  dxz    Ryd( 4d)     0.00008       2.91932
 309    C 16  dyz    Ryd( 3d)     0.00050       2.19553
 310    C 16  dyz    Ryd( 4d)     0.00005       2.56485
 311    C 16  dx2y2  Ryd( 3d)     0.00128       2.06880
 312    C 16  dx2y2  Ryd( 4d)     0.00003       2.79858
 313    C 16  dz2    Ryd( 3d)     0.00087       2.40863
 314    C 16  dz2    Ryd( 4d)     0.00009       2.95981
 315    C 16  f(0)   Ryd( 4f)     0.00004       3.45244
 316    C 16  f(c1)  Ryd( 4f)     0.00040       3.72446
 317    C 16  f(s1)  Ryd( 4f)     0.00012       3.56632
 318    C 16  f(c2)  Ryd( 4f)     0.00004       3.42485
 319    C 16  f(s2)  Ryd( 4f)     0.00004       3.41739
 320    C 16  f(c3)  Ryd( 4f)     0.00003       3.25087
 321    C 16  f(s3)  Ryd( 4f)     0.00029       3.62173

 322    H 17  s      Val( 1s)     0.83015       0.01391
 323    H 17  s      Ryd( 2s)     0.00336       0.51890
 324    H 17  s      Ryd( 3s)     0.00003       2.06914
 325    H 17  px     Ryd( 2p)     0.00057       2.65842
 326    H 17  py     Ryd( 2p)     0.00022       2.27110
 327    H 17  pz     Ryd( 2p)     0.00011       2.21601

 328    H 18  s      Val( 1s)     0.80747       0.02216
 329    H 18  s      Ryd( 2s)     0.00075       0.63798
 330    H 18  s      Ryd( 3s)     0.00003       1.85280
 331    H 18  px     Ryd( 2p)     0.00009       2.15388
 332    H 18  py     Ryd( 2p)     0.00090       2.74515
 333    H 18  pz     Ryd( 2p)     0.00009       2.19351

 334    H 19  s      Val( 1s)     0.79856       0.02966
 335    H 19  s      Ryd( 2s)     0.00052       0.65315
 336    H 19  s      Ryd( 3s)     0.00004       1.98082
 337    H 19  px     Ryd( 2p)     0.00030       2.37262
 338    H 19  py     Ryd( 2p)     0.00011       2.17677
 339    H 19  pz     Ryd( 2p)     0.00053       2.71118

 340    C 20  s      Cor( 1s)     1.99999     -10.17586
 341    C 20  s      Val( 2s)     1.04193      -0.18541
 342    C 20  s      Ryd( 3s)     0.00098       1.68812
 343    C 20  s      Ryd( 4s)     0.00004       2.08764
 344    C 20  s      Ryd( 5s)     0.00000      20.99924
 345    C 20  px     Val( 2p)     1.15090      -0.08624
 346    C 20  px     Ryd( 3p)     0.00357       0.92837
 347    C 20  px     Ryd( 4p)     0.00014       1.74520
 348    C 20  py     Val( 2p)     1.09048      -0.07123
 349    C 20  py     Ryd( 3p)     0.00199       0.83040
 350    C 20  py     Ryd( 4p)     0.00023       1.72426
 351    C 20  pz     Val( 2p)     1.10889      -0.08338
 352    C 20  pz     Ryd( 3p)     0.00223       0.69717
 353    C 20  pz     Ryd( 4p)     0.00029       1.65836
 354    C 20  dxy    Ryd( 3d)     0.00140       2.29879
 355    C 20  dxy    Ryd( 4d)     0.00013       3.68256
 356    C 20  dxz    Ryd( 3d)     0.00121       1.98302
 357    C 20  dxz    Ryd( 4d)     0.00023       3.57838
 358    C 20  dyz    Ryd( 3d)     0.00105       2.03480
 359    C 20  dyz    Ryd( 4d)     0.00013       3.54233
 360    C 20  dx2y2  Ryd( 3d)     0.00033       1.99698
 361    C 20  dx2y2  Ryd( 4d)     0.00025       3.19029
 362    C 20  dz2    Ryd( 3d)     0.00040       1.87780
 363    C 20  dz2    Ryd( 4d)     0.00018       3.13201
 364    C 20  f(0)   Ryd( 4f)     0.00004       3.53955
 365    C 20  f(c1)  Ryd( 4f)     0.00006       3.45159
 366    C 20  f(s1)  Ryd( 4f)     0.00009       3.52363
 367    C 20  f(c2)  Ryd( 4f)     0.00009       3.54339
 368    C 20  f(s2)  Ryd( 4f)     0.00052       3.89160
 369    C 20  f(c3)  Ryd( 4f)     0.00013       3.48161
 370    C 20  f(s3)  Ryd( 4f)     0.00004       3.61629

 371    H 21  s      Val( 1s)     0.77777       0.04626
 372    H 21  s      Ryd( 2s)     0.00099       0.78437
 373    H 21  s      Ryd( 3s)     0.00004       1.90013
 374    H 21  px     Ryd( 2p)     0.00052       2.62764
 375    H 21  py     Ryd( 2p)     0.00016       2.42439
 376    H 21  pz     Ryd( 2p)     0.00033       2.60394

 377    H 22  s      Val( 1s)     0.78621       0.04000
 378    H 22  s      Ryd( 2s)     0.00082       0.73339
 379    H 22  s      Ryd( 3s)     0.00004       2.04164
 380    H 22  px     Ryd( 2p)     0.00034       2.47642
 381    H 22  py     Ryd( 2p)     0.00040       2.61413
 382    H 22  pz     Ryd( 2p)     0.00034       2.63817

 383    C 23  s      Cor( 1s)     1.99999     -10.18370
 384    C 23  s      Val( 2s)     1.08963      -0.22558
 385    C 23  s      Ryd( 3s)     0.00060       1.20402
 386    C 23  s      Ryd( 4s)     0.00003       2.52156
 387    C 23  s      Ryd( 5s)     0.00001      20.41244
 388    C 23  px     Val( 2p)     1.12401      -0.10045
 389    C 23  px     Ryd( 3p)     0.00147       0.67080
 390    C 23  px     Ryd( 4p)     0.00012       1.66264
 391    C 23  py     Val( 2p)     1.15089      -0.10783
 392    C 23  py     Ryd( 3p)     0.00177       0.70049
 393    C 23  py     Ryd( 4p)     0.00019       1.66005
 394    C 23  pz     Val( 2p)     1.11681      -0.09419
 395    C 23  pz     Ryd( 3p)     0.00112       0.69882
 396    C 23  pz     Ryd( 4p)     0.00019       1.64610
 397    C 23  dxy    Ryd( 3d)     0.00114       1.90124
 398    C 23  dxy    Ryd( 4d)     0.00009       3.34939
 399    C 23  dxz    Ryd( 3d)     0.00180       2.06807
 400    C 23  dxz    Ryd( 4d)     0.00013       3.74180
 401    C 23  dyz    Ryd( 3d)     0.00097       1.99600
 402    C 23  dyz    Ryd( 4d)     0.00007       3.35092
 403    C 23  dx2y2  Ryd( 3d)     0.00065       1.76621
 404    C 23  dx2y2  Ryd( 4d)     0.00015       3.22472
 405    C 23  dz2    Ryd( 3d)     0.00071       1.74695
 406    C 23  dz2    Ryd( 4d)     0.00014       3.09771
 407    C 23  f(0)   Ryd( 4f)     0.00004       3.45270
 408    C 23  f(c1)  Ryd( 4f)     0.00016       3.55362
 409    C 23  f(s1)  Ryd( 4f)     0.00013       3.38369
 410    C 23  f(c2)  Ryd( 4f)     0.00030       3.63035
 411    C 23  f(s2)  Ryd( 4f)     0.00046       3.57846
 412    C 23  f(c3)  Ryd( 4f)     0.00006       3.49206
 413    C 23  f(s3)  Ryd( 4f)     0.00007       3.40322

 414    H 24  s      Val( 1s)     0.77043       0.00963
 415    H 24  s      Ryd( 2s)     0.00050       0.73980
 416    H 24  s      Ryd( 3s)     0.00002       1.86041
 417    H 24  px     Ryd( 2p)     0.00015       2.34015
 418    H 24  py     Ryd( 2p)     0.00074       2.78105
 419    H 24  pz     Ryd( 2p)     0.00015       2.33616

 420    H 25  s      Val( 1s)     0.76237       0.02787
 421    H 25  s      Ryd( 2s)     0.00077       0.78285
 422    H 25  s      Ryd( 3s)     0.00005       2.01178
 423    H 25  px     Ryd( 2p)     0.00053       2.59311
 424    H 25  py     Ryd( 2p)     0.00011       2.31828
 425    H 25  pz     Ryd( 2p)     0.00033       2.61207

 426    C 26  s      Cor( 1s)     1.99999     -10.26104
 427    C 26  s      Val( 2s)     0.95695      -0.17901
 428    C 26  s      Ryd( 3s)     0.00973       1.13401
 429    C 26  s      Ryd( 4s)     0.00009       1.03360
 430    C 26  s      Ryd( 5s)     0.00001      22.10848
 431    C 26  px     Val( 2p)     0.83867      -0.06116
 432    C 26  px     Ryd( 3p)     0.00469       0.99817
 433    C 26  px     Ryd( 4p)     0.00018       1.01761
 434    C 26  py     Val( 2p)     0.78601      -0.03440
 435    C 26  py     Ryd( 3p)     0.00843       1.05271
 436    C 26  py     Ryd( 4p)     0.00028       1.10296
 437    C 26  pz     Val( 2p)     0.94598      -0.07949
 438    C 26  pz     Ryd( 3p)     0.00178       1.11566
 439    C 26  pz     Ryd( 4p)     0.00024       1.05919
 440    C 26  dxy    Ryd( 3d)     0.00078       2.95726
 441    C 26  dxy    Ryd( 4d)     0.00035       2.40857
 442    C 26  dxz    Ryd( 3d)     0.00085       2.88903
 443    C 26  dxz    Ryd( 4d)     0.00009       2.25111
 444    C 26  dyz    Ryd( 3d)     0.00135       2.84051
 445    C 26  dyz    Ryd( 4d)     0.00025       2.22758
 446    C 26  dx2y2  Ryd( 3d)     0.00115       2.83952
 447    C 26  dx2y2  Ryd( 4d)     0.00014       2.16848
 448    C 26  dz2    Ryd( 3d)     0.00077       2.67405
 449    C 26  dz2    Ryd( 4d)     0.00018       2.12786
 450    C 26  f(0)   Ryd( 4f)     0.00014       3.22735
 451    C 26  f(c1)  Ryd( 4f)     0.00005       3.36951
 452    C 26  f(s1)  Ryd( 4f)     0.00020       3.47651
 453    C 26  f(c2)  Ryd( 4f)     0.00008       3.33405
 454    C 26  f(s2)  Ryd( 4f)     0.00031       3.46411
 455    C 26  f(c3)  Ryd( 4f)     0.00012       3.48784
 456    C 26  f(s3)  Ryd( 4f)     0.00020       3.48149

 457    H 27  s      Val( 1s)     0.89913      -0.03325
 458    H 27  s      Ryd( 2s)     0.00323       0.45333
 459    H 27  s      Ryd( 3s)     0.00009       2.12379
 460    H 27  px     Ryd( 2p)     0.00022       2.27232
 461    H 27  py     Ryd( 2p)     0.00021       2.31788
 462    H 27  pz     Ryd( 2p)     0.00066       2.63244

 463    O 28  s      Cor( 1s)     1.99999     -19.12596
 464    O 28  s      Val( 2s)     1.70243      -0.68343
 465    O 28  s      Ryd( 3s)     0.00068       1.39849
 466    O 28  s      Ryd( 4s)     0.00002       5.04700
 467    O 28  s      Ryd( 5s)     0.00000      41.26150
 468    O 28  px     Val( 2p)     1.60603      -0.26853
 469    O 28  px     Ryd( 3p)     0.00167       0.66619
 470    O 28  px     Ryd( 4p)     0.00007       3.17775
 471    O 28  py     Val( 2p)     1.49903      -0.27365
 472    O 28  py     Ryd( 3p)     0.00047       0.65042
 473    O 28  py     Ryd( 4p)     0.00011       3.41726
 474    O 28  pz     Val( 2p)     1.68669      -0.26820
 475    O 28  pz     Ryd( 3p)     0.00271       0.66579
 476    O 28  pz     Ryd( 4p)     0.00003       3.10856
 477    O 28  dxy    Ryd( 3d)     0.00574       1.96777
 478    O 28  dxy    Ryd( 4d)     0.00002       6.62475
 479    O 28  dxz    Ryd( 3d)     0.00196       1.72678
 480    O 28  dxz    Ryd( 4d)     0.00000       6.45420
 481    O 28  dyz    Ryd( 3d)     0.00408       1.91694
 482    O 28  dyz    Ryd( 4d)     0.00003       6.58191
 483    O 28  dx2y2  Ryd( 3d)     0.00467       1.88202
 484    O 28  dx2y2  Ryd( 4d)     0.00001       6.55124
 485    O 28  dz2    Ryd( 3d)     0.00227       1.75977
 486    O 28  dz2    Ryd( 4d)     0.00001       6.43552
 487    O 28  f(0)   Ryd( 4f)     0.00005       5.48689
 488    O 28  f(c1)  Ryd( 4f)     0.00005       5.40358
 489    O 28  f(s1)  Ryd( 4f)     0.00008       5.65633
 490    O 28  f(c2)  Ryd( 4f)     0.00006       5.60641
 491    O 28  f(s2)  Ryd( 4f)     0.00008       5.67214
 492    O 28  f(c3)  Ryd( 4f)     0.00008       5.79287
 493    O 28  f(s3)  Ryd( 4f)     0.00012       5.80668

     Population inversion found on atom  C  5
     Population inversion found on atom  C  6
     Population inversion found on atom  N 11
     Population inversion found on atom  C 26


 Summary of Natural Population Analysis:

                                     Natural Population
             Natural    ---------------------------------------------
  Atom No    Charge        Core      Valence    Rydberg      Total
 --------------------------------------------------------------------
    C  1   -0.03428      1.99999     4.01404    0.02026     6.03428
    C  2   -0.18605      1.99999     4.16857    0.01748     6.18605
    C  3   -0.21347      1.99999     4.19654    0.01695     6.21347
    C  4   -0.20101      1.99999     4.18377    0.01725     6.20101
    C  5   -0.24376      1.99999     4.22640    0.01737     6.24376
    C  6    0.14254      1.99999     3.83705    0.02043     5.85746
    H  7    0.21752      0.00000     0.78082    0.00166     0.78248
    H  8    0.20942      0.00000     0.78920    0.00138     0.79058
    H  9    0.20721      0.00000     0.79138    0.00142     0.79279
    H 10    0.20630      0.00000     0.79147    0.00224     0.79370
    N 11   -0.44163      1.99999     5.41655    0.02509     7.44163
    C 12   -0.39675      1.99999     4.38468    0.01208     6.39675
    H 13    0.16005      0.00000     0.83585    0.00410     0.83995
    H 14    0.19465      0.00000     0.80357    0.00178     0.80535
    H 15    0.20313      0.00000     0.79543    0.00145     0.79687
    C 16   -0.39119      1.99999     4.37955    0.01165     6.39119
    H 17    0.16556      0.00000     0.83015    0.00430     0.83444
    H 18    0.19068      0.00000     0.80747    0.00186     0.80932
    H 19    0.19994      0.00000     0.79856    0.00150     0.80006
    C 20   -0.40795      1.99999     4.39220    0.01576     6.40795
    H 21    0.22018      0.00000     0.77777    0.00205     0.77982
    H 22    0.21185      0.00000     0.78621    0.00194     0.78815
    C 23   -0.49389      1.99999     4.48134    0.01256     6.49389
    H 24    0.22800      0.00000     0.77043    0.00157     0.77200
    H 25    0.23584      0.00000     0.76237    0.00179     0.76416
    C 26    0.43995      1.99999     3.52761    0.03245     5.56005
    H 27    0.09645      0.00000     0.89913    0.00441     0.90355
    O 28   -0.51926      1.99999     6.49419    0.02508     8.51926
 ====================================================================
 * Total *  0.00000     25.99986    69.72229    0.27786    96.00000

                                 Natural Population
 ---------------------------------------------------------
   Core                      25.99986 ( 99.9994% of   26)
   Valence                   69.72229 ( 99.6033% of   70)
   Natural Minimal Basis     95.72214 ( 99.7106% of   96)
   Natural Rydberg Basis      0.27786 (  0.2894% of   96)
 ---------------------------------------------------------

    Atom No         Natural Electron Configuration
 ----------------------------------------------------------------------------
      C  1      [core]2s( 0.92)2p( 3.09)3p( 0.01)
      C  2      [core]2s( 0.97)2p( 3.20)3p( 0.01)
      C  3      [core]2s( 0.98)2p( 3.22)3p( 0.01)
      C  4      [core]2s( 0.97)2p( 3.21)3p( 0.01)
      C  5      [core]2s( 0.97)2p( 3.25)3p( 0.01)
      C  6      [core]2s( 0.88)2p( 2.96)3p( 0.01)
      H  7            1s( 0.78)
      H  8            1s( 0.79)
      H  9            1s( 0.79)
      H 10            1s( 0.79)
      N 11      [core]2s( 1.26)2p( 4.16)3p( 0.01)3d( 0.01)
      C 12      [core]2s( 1.08)2p( 3.30)
      H 13            1s( 0.84)
      H 14            1s( 0.80)
      H 15            1s( 0.80)
      C 16      [core]2s( 1.09)2p( 3.29)
      H 17            1s( 0.83)
      H 18            1s( 0.81)
      H 19            1s( 0.80)
      C 20      [core]2s( 1.04)2p( 3.35)3p( 0.01)
      H 21            1s( 0.78)
      H 22            1s( 0.79)
      C 23      [core]2s( 1.09)2p( 3.39)3d( 0.01)
      H 24            1s( 0.77)
      H 25            1s( 0.76)
      C 26      [core]2s( 0.96)2p( 2.57)3s( 0.01)3p( 0.01)
      H 27            1s( 0.90)
      O 28      [core]2s( 1.70)2p( 4.79)3d( 0.02)


 NATURAL BOND ORBITAL ANALYSIS:

                            Occupancies       Lewis Structure    Low   High
         Max    Occ     -------------------  -----------------   occ   occ
  Cycle  Ctr   Thresh    Lewis   non-Lewis     CR  BD  nC  LP    (L)   (NL)
 ============================================================================
    1     2     1.90    90.15743   5.84257     13  27   0   8     7      6
    2     2     1.89    90.23238   5.76762     13  28   0   7     7      6
    3     2     1.88    90.23238   5.76762     13  28   0   7     6      6
    4     2     1.87    92.21130   3.78870     13  30   0   5     3      3
    5     2     1.84    92.21586   3.78414     13  29   0   6     3      3
    6     2     1.67    92.86359   3.13641     13  30   0   5     2      3
    7     2     1.66    93.51622   2.48378     13  31   0   4     1      3
    8     2     1.65    94.16749   1.83251     13  32   0   3     0      3
    9     2     1.63    94.16749   1.83251     13  32   0   3     0      3
   10     2     1.65    94.16749   1.83251     13  32   0   3     0      3
 ----------------------------------------------------------------------------

 Structure accepted: No low occupancy Lewis orbitals

 -------------------------------------------------------
   Core                     25.99986 ( 99.999% of  26)
   Valence Lewis            68.16763 ( 97.382% of  70)
  ==================      =============================
   Total Lewis              94.16749 ( 98.091% of  96)
  -----------------------------------------------------
   Valence non-Lewis         1.68124 (  1.751% of  96)
   Rydberg non-Lewis         0.15127 (  0.158% of  96)
  ==================      =============================
   Total non-Lewis           1.83251 (  1.909% of  96)
[...]
  146.  0.00038     2.97175   86.   RY ( 6) C  1
  147.  0.00038     2.58213  189.   RY ( 5) C  5
  148.  0.00037     2.51138  404.   RY ( 4) C 23
  149.  0.00036     3.07815  163.   RY ( 5) C  4
  150.  0.00036     1.25173  470.   RY ( 3) O 28
  151.  0.00035     3.02957  111.   RY ( 5) C  2
  152.  0.00034     3.03816  261.   RY ( 5) N 11
  153.  0.00033     3.07034  112.   RY ( 6) C  2
  154.  0.00033     3.24511  137.   RY ( 5) C  3
  155.  0.00033     0.60366  242.   RY ( 1) H  8
  156.  0.00032     3.32813  164.   RY ( 6) C  4
  157.  0.00032     2.64227  190.   RY ( 6) C  5
  158.  0.00031     2.46470   87.   RY ( 7) C  1
  159.  0.00031     2.88787  138.   RY ( 6) C  3
  160.  0.00030     2.09922  369.   RY ( 5) C 20
  161.  0.00030     1.92434  405.   RY ( 5) C 23
  162.  0.00029     2.30346  370.   RY ( 6) C 20
  163.  0.00028     3.77822  262.   RY ( 6) N 11
  164.  0.00028     1.73904  286.   RY ( 4) C 12
  165.  0.00028     2.83997  218.   RY ( 8) C  6
  166.  0.00024     2.92854   88.   RY ( 8) C  1
  167.  0.00024     3.07479  191.   RY ( 7) C  5
  168.  0.00023     2.39518  219.   RY ( 9) C  6
  169.  0.00023     1.62266  406.   RY ( 6) C 23
  170.  0.00022     1.81327  327.   RY ( 4) C 16
  171.  0.00021     2.99597   89.   RY ( 9) C  1
  172.  0.00020     2.65901   90.   RY (10) C  1
  173.  0.00018     1.87859  371.   RY ( 7) C 20
  174.  0.00018     0.81180  441.   RY ( 5) C 26
  175.  0.00018     2.48176  407.   RY ( 7) C 23
  176.  0.00017     1.87995  113.   RY ( 7) C  2
  177.  0.00016     3.01422  263.   RY ( 7) N 11
  178.  0.00016     1.80116  287.   RY ( 5) C 12
  179.  0.00016     2.47258  220.   RY (10) C  6
  180.  0.00014     2.13725  253.   RY ( 2) H 10
  181.  0.00014     2.06420  238.   RY ( 2) H  7
  182.  0.00014     1.53344  328.   RY ( 5) C 16
  183.  0.00013     2.39963  408.   RY ( 8) C 23
  184.  0.00013     2.13026  372.   RY ( 8) C 20
  185.  0.00013     2.43807  397.   RY ( 2) H 22
  186.  0.00013     2.11956  248.   RY ( 2) H  9
  187.  0.00013     2.12685  243.   RY ( 2) H  8
  188.  0.00013     1.58159  329.   RY ( 6) C 16
  189.  0.00012     2.26306  464.   RY ( 2) H 27
  190.  0.00012     2.33013  433.   RY ( 2) H 25
  191.  0.00012     3.51486  264.   RY ( 8) N 11
  192.  0.00012     2.52946  373.   RY ( 9) C 20
  193.  0.00012     2.22635  361.   RY ( 2) H 19
  194.  0.00011     2.22779  139.   RY ( 7) C  3
  195.  0.00011     2.08670  221.   RY (11) C  6
  196.  0.00011     2.26502   91.   RY (11) C  1
  197.  0.00011     2.35098  222.   RY (12) C  6
  198.  0.00011     2.42760  392.   RY ( 2) H 21
  199.  0.00011     2.35088  428.   RY ( 2) H 24
  200.  0.00010     1.42537  192.   RY ( 8) C  5
  201.  0.00010     1.94037  239.   RY ( 3) H  7
  202.  0.00010     1.36774  288.   RY ( 6) C 12
  203.  0.00010     2.24589  442.   RY ( 6) C 26
  204.  0.00010     2.62291  265.   RY ( 9) N 11
  205.  0.00010     2.12916  315.   RY ( 2) H 14
  206.  0.00010     2.12504  320.   RY ( 2) H 15
  207.  0.00009     2.02481  249.   RY ( 3) H  9
  208.  0.00009     1.98880  254.   RY ( 3) H 10
  209.  0.00009     2.15268  356.   RY ( 2) H 18
  210.  0.00009     2.02326   92.   RY (12) C  1
  211.  0.00009     2.45103  165.   RY ( 7) C  4
  212.  0.00009     2.04719  244.   RY ( 3) H  8
  213.  0.00009     2.31847  429.   RY ( 3) H 24
  214.  0.00009     3.50302  266.   RY (10) N 11
  215.  0.00008     2.19675  310.   RY ( 2) H 13
  216.  0.00008     2.13959  465.   RY ( 3) H 27
  217.  0.00008     2.31810  114.   RY ( 8) C  2
  218.  0.00008     2.40242  471.   RY ( 4) O 28
  219.  0.00008     2.54264  193.   RY ( 9) C  5
  220.  0.00008     2.28172  374.   RY (10) C 20
  221.  0.00008     2.36220  398.   RY ( 3) H 22
  222.  0.00007     2.36701  393.   RY ( 3) H 21
  223.  0.00007     2.23146  351.   RY ( 2) H 17
  224.  0.00007     3.19743  443.   RY ( 7) C 26
  225.  0.00007     2.55112  255.   RY ( 4) H 10
  226.  0.00007     1.62002  289.   RY ( 7) C 12
  227.  0.00007     2.16631  311.   RY ( 3) H 13
  228.  0.00007     2.20160  321.   RY ( 3) H 15
  229.  0.00007     2.20002  375.   RY (11) C 20
  230.  0.00007     3.21129   93.   RY (13) C  1
  231.  0.00007     2.12050  357.   RY ( 3) H 18
  232.  0.00006     2.15419  362.   RY ( 3) H 19
  233.  0.00006     2.29946  434.   RY ( 3) H 25
  234.  0.00006     2.56079  240.   RY ( 4) H  7
  235.  0.00006     2.67760  115.   RY ( 9) C  2
  236.  0.00006     2.11134  316.   RY ( 3) H 14
  237.  0.00006     2.50926  250.   RY ( 4) H  9
  238.  0.00006     1.50954  330.   RY ( 7) C 16
  239.  0.00006     2.11165  352.   RY ( 3) H 17
  240.  0.00006     2.27211  394.   RY ( 4) H 21
  241.  0.00005     3.51683  223.   RY (13) C  6
  242.  0.00006     2.89161  267.   RY (11) N 11
  243.  0.00005     2.30993  363.   RY ( 4) H 19
  244.  0.00005     2.04227  409.   RY ( 9) C 23
  245.  0.00005     1.81018  331.   RY ( 8) C 16
  246.  0.00005     2.50843  245.   RY ( 4) H  8
  247.  0.00005     2.42948  399.   RY ( 4) H 22
  248.  0.00005     2.79573   94.   RY (14) C  1
  249.  0.00005     2.38367  435.   RY ( 4) H 25
  250.  0.00005     1.78999  290.   RY ( 8) C 12
  251.  0.00005     2.02569  466.   RY ( 4) H 27
  252.  0.00005     1.29807  472.   RY ( 5) O 28
  253.  0.00004     2.66313  116.   RY (10) C  2
  254.  0.00004     1.84808  166.   RY ( 8) C  4
  255.  0.00004     2.25065  224.   RY (14) C  6
  256.  0.00004     1.67055  444.   RY ( 8) C 26
  257.  0.00004     1.81904  194.   RY (10) C  5
  258.  0.00004     2.23285  312.   RY ( 4) H 13
  259.  0.00004     1.81340  117.   RY (11) C  2
  260.  0.00003     1.90889  140.   RY ( 8) C  3
  261.  0.00003     1.36814  473.   RY ( 6) O 28
  262.  0.00003     2.18727  317.   RY ( 4) H 14
  263.  0.00003     2.22767  322.   RY ( 4) H 15
  264.  0.00003     2.28071  353.   RY ( 4) H 17
  265.  0.00003     2.46296  410.   RY (10) C 23
  266.  0.00003     3.05549   95.   RY (15) C  1
  267.  0.00003     4.03557  225.   RY (15) C  6
  268.  0.00003     2.18405  358.   RY ( 4) H 18
  269.  0.00003     2.29525  195.   RY (11) C  5
  270.  0.00003     3.10519  376.   RY (12) C 20
  271.  0.00003     2.33417  430.   RY ( 4) H 24
  272.  0.00003     3.02121  268.   RY (12) N 11
  273.  0.00003     1.87595  474.   RY ( 7) O 28
  274.  0.00002     3.13254  226.   RY (16) C  6
  275.  0.00002     2.20485  291.   RY ( 9) C 12
  276.  0.00002     1.91470  332.   RY ( 9) C 16
  277.  0.00002     2.60083  377.   RY (13) C 20
  278.  0.00002     2.33885  333.   RY (10) C 16
  279.  0.00002     2.31173  167.   RY ( 9) C  4
  280.  0.00002     1.68621  292.   RY (10) C 12
  281.  0.00002     2.49841  411.   RY (11) C 23
  282.  0.00002     1.90899  445.   RY ( 9) C 26
  283.  0.00002     3.51157  227.   RY (17) C  6
  284.  0.00002     3.67200  269.   RY (13) N 11
  285.  0.00002     2.77770  196.   RY (12) C  5
  286.  0.00002     3.39104  270.   RY (14) N 11
  287.  0.00002     2.75088  378.   RY (14) C 20
  288.  0.00002     2.53957  400.   RY ( 5) H 22
  289.  0.00002     2.74239  412.   RY (12) C 23
  290.  0.00001     3.49174   96.   RY (16) C  1
  291.  0.00001     2.09521  118.   RY (12) C  2
  292.  0.00001     2.92325  119.   RY (13) C  2
  293.  0.00001     2.01726  293.   RY (11) C 12
  294.  0.00001     3.10974   97.   RY (17) C  1
  295.  0.00001     2.24167  141.   RY ( 9) C  3
  296.  0.00001     2.60814   98.   RY (18) C  1
  297.  0.00001     2.47640  142.   RY (10) C  3
  298.  0.00001     2.35645  120.   RY (14) C  2
  299.  0.00001     2.43881  168.   RY (10) C  4
  300.  0.00001     2.24072  197.   RY (13) C  5
  301.  0.00001     3.30535  198.   RY (14) C  5
  302.  0.00001     2.91702  241.   RY ( 5) H  7
  303.  0.00001     2.92741  256.   RY ( 5) H 10
  304.  0.00001     2.80965  379.   RY (15) C 20
  305.  0.00001     2.10147  413.   RY (13) C 23
  306.  0.00001     2.33409  143.   RY (11) C  3
  307.  0.00001     4.26554  271.   RY (15) N 11
  308.  0.00001     2.52633  436.   RY ( 5) H 25
  309.  0.00001     2.27846  446.   RY (10) C 26
  310.  0.00001     2.02764  169.   RY (11) C  4
  311.  0.00001     3.18210  228.   RY (18) C  6
  312.  0.00001     3.40931   99.   RY (19) C  1
  313.  0.00001     2.70645  121.   RY (15) C  2
  314.  0.00001     2.93798  144.   RY (12) C  3
  315.  0.00001     2.87822  246.   RY ( 5) H  8
  316.  0.00001     2.23102  380.   RY (16) C 20
  317.  0.00001     1.67016  447.   RY (11) C 26
  318.  0.00001     2.19785  170.   RY (12) C  4
  319.  0.00001     2.91292  251.   RY ( 5) H  9
  320.  0.00001     2.49703  395.   RY ( 5) H 21
  321.  0.00001     2.41003  414.   RY (14) C 23
  322.  0.00001     3.06321  199.   RY (15) C  5
  323.  0.00001     3.70546  229.   RY (19) C  6
  324.  0.00000     3.25640  100.   RY (20) C  1
  325.  0.00000     4.16372  122.   RY (16) C  2
  326.  0.00000     3.40578  123.   RY (17) C  2
  327.  0.00001     2.46900  318.   RY ( 5) H 14
  328.  0.00001     2.17386  334.   RY (11) C 16
  329.  0.00001     2.57678  354.   RY ( 5) H 17
  330.  0.00000     2.87606  145.   RY (13) C  3
  331.  0.00000     2.45877  171.   RY (13) C  4
  332.  0.00000     3.31275  101.   RY (21) C  1
  333.  0.00000     3.25960  102.   RY (22) C  1
  334.  0.00000     3.94433  103.   RY (23) C  1
  335.  0.00000     2.18200  124.   RY (18) C  2
  336.  0.00000     5.04927  104.   RY (24) C  1
  337.  0.00000     3.98777  105.   RY (25) C  1
  338.  0.00000     5.44881  125.   RY (19) C  2
  339.  0.00000     4.27497  126.   RY (20) C  2
  340.  0.00000     4.09435  146.   RY (14) C  3
  341.  0.00000     4.25303  147.   RY (15) C  3
  342.  0.00000    16.93027  106.   RY (26) C  1
  343.  0.00000     3.83719  127.   RY (21) C  2
  344.  0.00000    12.88506  128.   RY (22) C  2
  345.  0.00000     3.65497  129.   RY (23) C  2
  346.  0.00000     3.46522  130.   RY (24) C  2
  347.  0.00000     3.56873  131.   RY (25) C  2
  348.  0.00000     4.75627  132.   RY (26) C  2
  349.  0.00000    10.17382  148.   RY (16) C  3
  350.  0.00000     2.85872  149.   RY (17) C  3
  351.  0.00000     3.05175  150.   RY (18) C  3
  352.  0.00000     3.22769  151.   RY (19) C  3
  353.  0.00000     2.74374  152.   RY (20) C  3
  354.  0.00000     3.05090  153.   RY (21) C  3
  355.  0.00000     4.05280  154.   RY (22) C  3
  356.  0.00000     4.44735  155.   RY (23) C  3
  357.  0.00000     4.15801  156.   RY (24) C  3
  358.  0.00000     4.91744  157.   RY (25) C  3
  359.  0.00000     3.07134  158.   RY (26) C  3
  360.  0.00000     2.93312  172.   RY (14) C  4
  361.  0.00000     3.15222  173.   RY (15) C  4
  362.  0.00000    11.41608  174.   RY (16) C  4
  363.  0.00000     5.55828  175.   RY (17) C  4
  364.  0.00000     3.90167  176.   RY (18) C  4
  365.  0.00000     3.35078  177.   RY (19) C  4
  366.  0.00000     3.09801  200.   RY (16) C  5
  367.  0.00000     2.91935  201.   RY (17) C  5
  368.  0.00000     5.73932  202.   RY (18) C  5
  369.  0.00000     3.57483  230.   RY (20) C  6
  370.  0.00000     3.68203  231.   RY (21) C  6
  371.  0.00000     4.19132  272.   RY (16) N 11
  372.  0.00000     4.37668  273.   RY (17) N 11
  373.  0.00000     2.67871  323.   RY ( 5) H 15
  374.  0.00000     2.48367  359.   RY ( 5) H 18
  375.  0.00001     2.32602  431.   RY ( 5) H 24
  376.  0.00001     2.90515  467.   RY ( 5) H 27
  377.  0.00000     3.44735  178.   RY (20) C  4
  378.  0.00000     5.04002  203.   RY (19) C  5
  379.  0.00000     3.24965  179.   RY (21) C  4
  380.  0.00000     3.35316  180.   RY (22) C  4
  381.  0.00000     3.69952  181.   RY (23) C  4
  382.  0.00000     3.58314  182.   RY (24) C  4
  383.  0.00000     5.02645  183.   RY (25) C  4
  384.  0.00000     3.29382  184.   RY (26) C  4
  385.  0.00000     2.49254  204.   RY (20) C  5
  386.  0.00000     3.17163  205.   RY (21) C  5
  387.  0.00000     7.53090  206.   RY (22) C  5
  388.  0.00000     6.23231  207.   RY (23) C  5
  389.  0.00000     4.20331  208.   RY (24) C  5
  390.  0.00000     3.47066  209.   RY (25) C  5
  391.  0.00000     6.59692  210.   RY (26) C  5
  392.  0.00000    16.73350  232.   RY (22) C  6
  393.  0.00000     4.17944  233.   RY (23) C  6
  394.  0.00000     5.32166  234.   RY (24) C  6
  395.  0.00000     3.97778  235.   RY (25) C  6
  396.  0.00000     2.90357  236.   RY (26) C  6
  397.  0.00000     4.10997  274.   RY (18) N 11
  398.  0.00000     4.22913  275.   RY (19) N 11
  399.  0.00000     2.26344  294.   RY (12) C 12
  400.  0.00000     2.50395  295.   RY (13) C 12
  401.  0.00000     2.64482  313.   RY ( 5) H 13
  402.  0.00000     1.86989  335.   RY (12) C 16
  403.  0.00000    14.87199  276.   RY (20) N 11
  404.  0.00000     7.49863  277.   RY (21) N 11
  405.  0.00000     8.04981  278.   RY (22) N 11
  406.  0.00000     5.11661  279.   RY (23) N 11
  407.  0.00000     4.56351  280.   RY (24) N 11
  408.  0.00000     5.20327  281.   RY (25) N 11
  409.  0.00000     9.05596  282.   RY (26) N 11
  410.  0.00000     3.59902  296.   RY (14) C 12
  411.  0.00000     2.50237  297.   RY (15) C 12
  412.  0.00000     2.21410  298.   RY (16) C 12
  413.  0.00000     2.80387  336.   RY (13) C 16
  414.  0.00000     2.51442  364.   RY ( 5) H 19
  415.  0.00000     3.26590  381.   RY (17) C 20
  416.  0.00000     2.72256  337.   RY (14) C 16
  417.  0.00000     3.29957  382.   RY (18) C 20
  418.  0.00000     3.12818  383.   RY (19) C 20
  419.  0.00000     2.87425  384.   RY (20) C 20
  420.  0.00000     2.09521  415.   RY (15) C 23
  421.  0.00000     3.45453  475.   RY ( 8) O 28
  422.  0.00000     1.71058  448.   RY (12) C 26
  423.  0.00000    10.87740  299.   RY (17) C 12
  424.  0.00000     6.40163  300.   RY (18) C 12
  425.  0.00000     2.96561  301.   RY (19) C 12
  426.  0.00000     4.12273  302.   RY (20) C 12
  427.  0.00000     4.01865  303.   RY (21) C 12
  428.  0.00000     3.67292  304.   RY (22) C 12
  429.  0.00000     2.91146  305.   RY (23) C 12
  430.  0.00000     8.55016  306.   RY (24) C 12
  431.  0.00000     3.79897  307.   RY (25) C 12
  432.  0.00000     3.10659  308.   RY (26) C 12
  433.  0.00000     3.48625  338.   RY (15) C 16
  434.  0.00000     3.33899  339.   RY (16) C 16
  435.  0.00000     3.16296  340.   RY (17) C 16
  436.  0.00000    17.96358  341.   RY (18) C 16
  437.  0.00000     2.55133  342.   RY (19) C 16
  438.  0.00000     3.75028  343.   RY (20) C 16
  439.  0.00000     2.88430  344.   RY (21) C 16
  440.  0.00000     5.06344  345.   RY (22) C 16
  441.  0.00000     3.04127  346.   RY (23) C 16
  442.  0.00000     3.57075  385.   RY (21) C 20
  443.  0.00000     3.81807  416.   RY (16) C 23
  444.  0.00000     3.39804  347.   RY (24) C 16
  445.  0.00000     3.48492  348.   RY (25) C 16
  446.  0.00000     3.43218  349.   RY (26) C 16
  447.  0.00000     4.06684  386.   RY (22) C 20
  448.  0.00000     3.48801  387.   RY (23) C 20
  449.  0.00000     3.16381  388.   RY (24) C 20
  450.  0.00000    20.17207  389.   RY (25) C 20
  451.  0.00000     3.56038  390.   RY (26) C 20
  452.  0.00000     6.88437  417.   RY (17) C 23
  453.  0.00000     3.45411  418.   RY (18) C 23
  454.  0.00000     3.20578  419.   RY (19) C 23
  455.  0.00000     6.37129  420.   RY (20) C 23
  456.  0.00000     3.47838  421.   RY (21) C 23
  457.  0.00000     3.32106  422.   RY (22) C 23
  458.  0.00000     2.91197  423.   RY (23) C 23
  459.  0.00000     2.31544  449.   RY (13) C 26
  460.  0.00000     2.79543  450.   RY (14) C 26
  461.  0.00000     6.88296  424.   RY (24) C 23
  462.  0.00000     3.46423  425.   RY (25) C 23
  463.  0.00000     7.69393  426.   RY (26) C 23
  464.  0.00000     3.96432  451.   RY (15) C 26
  465.  0.00000     3.45675  452.   RY (16) C 26
  466.  0.00000     2.89013  453.   RY (17) C 26
  467.  0.00000     2.41459  454.   RY (18) C 26
  468.  0.00000     2.84813  455.   RY (19) C 26
  469.  0.00000     2.62848  476.   RY ( 9) O 28
  470.  0.00000     2.91504  477.   RY (10) O 28
  471.  0.00000     2.56302  478.   RY (11) O 28
  472.  0.00000    10.61348  456.   RY (20) C 26
  473.  0.00000     3.93584  457.   RY (21) C 26
  474.  0.00000     7.70471  458.   RY (22) C 26
  475.  0.00000     4.97158  459.   RY (23) C 26
  476.  0.00000     3.12235  460.   RY (24) C 26
  477.  0.00000     3.33407  461.   RY (25) C 26
  478.  0.00000     3.18035  462.   RY (26) C 26
  479.  0.00000     4.18347  479.   RY (12) O 28
  480.  0.00000    14.32835  480.   RY (13) O 28
  481.  0.00000     3.68385  481.   RY (14) O 28
  482.  0.00000     8.99114  482.   RY (15) O 28
  483.  0.00000    14.26697  483.   RY (16) O 28
  484.  0.00000     6.18730  484.   RY (17) O 28
  485.  0.00000    12.65113  485.   RY (18) O 28
  486.  0.00000     5.86612  486.   RY (19) O 28
  487.  0.00000     6.06380  487.   RY (20) O 28
  488.  0.00000     6.49600  488.   RY (21) O 28
  489.  0.00000     5.87669  489.   RY (22) O 28
  490.  0.00000     5.87098  490.   RY (23) O 28
  491.  0.00000     6.07883  491.   RY (24) O 28
  492.  0.00000     8.77818  492.   RY (25) O 28
  493.  0.00000     9.70715  493.   RY (26) O 28

 Maximum scratch memory used by NBO was 2207538 words
 Maximum scratch memory used by G09NBO was 1585776 words

 Read Unf file /home/aloke/aloke/prakash/Gau-1359.EUF:
 Label Gaussian matrix elements                                         IVers= 1 NLab= 2 Version=AM64L-G09RevD.01
 Title Energy Optimisation and Frequency calculation                   
 NAtoms=    28 NBasis=   493 NBsUse=   493 ICharg=     0 Multip=     1 NE=    96 Len12L=8 Len4L=8
 Label GAUSSIAN SCALARS                                                 NI= 1 NR= 1 NTot=       1 LenBuf=    2000 N=    1000       1       1       1       1
 Label ALPHA ORBITAL ENERGIES                                           NI= 0 NR= 1 NTot=     493 LenBuf=    4000 N=     493       0       0       0       0
 Label ALPHA MO COEFFICIENTS                                            NI= 0 NR= 1 NTot=  243049 LenBuf=    4000 N=     493     493       0       0       0
 Store file  524 Len=  243049.
 Label NPA CHARGES                                                      NI= 0 NR= 1 NTot=      28 LenBuf=    4000 N=      28       0       0       0       0
 Recovered energy= -558.394288450     dipole=      0.000000000000      0.000000000000      0.000000000000
 1\1\GINC-CN031\SP\RB3LYP\def2TZVP\C11H15N1O1\ALOKE\11-Jul-2021\0\\# b
 3lyp/def2tzvp empiricaldispersion=gd3 pop=nbo6read pop=saveNBOs int=(g
 rid=ultrafine) scf=(tight,maxcycle=300)\\Energy Optimisation and Frequ
 ency calculation\\0,1\C,0,-0.289544,0.360543,0.586034\C,0,-0.830196,1.
 642491,0.663257\C,0,-0.149866,2.751163,0.173349\C,0,1.097133,2.584624,
 -0.411864\C,0,1.659944,1.316018,-0.487033\C,0,0.984682,0.199464,0.0093
 2\H,0,-1.822309,1.761465,1.079212\H,0,-0.600254,3.733574,0.235519\H,0,
 1.636756,3.437103,-0.805514\H,0,2.638256,1.196171,-0.932914\N,0,1.5497
 67,-1.113269,-0.063563\C,0,2.37234,-1.393291,-1.228983\H,0,3.36677,-0.
 920007,-1.195844\H,0,2.527175,-2.47207,-1.301474\H,0,1.863168,-1.05685
 5,-2.131852\C,0,2.203805,-1.540027,1.169941\H,0,3.164839,-1.024912,1.3
 28521\H,0,2.393278,-2.615222,1.134067\H,0,1.570254,-1.330814,2.029954\
 C,0,-1.102859,-0.829008,1.044926\H,0,-1.921702,-0.480847,1.675658\H,0,
 -0.499423,-1.505516,1.648437\C,0,-1.684876,-1.626195,-0.127394\H,0,-2.
 045742,-2.609458,0.204884\H,0,-0.912796,-1.842342,-0.871905\C,0,-2.852
 676,-0.972397,-0.815823\H,0,-3.18333,-1.480334,-1.748314\O,0,-3.433829
 ,0.005331,-0.419735\\Version=AM64L-G09RevD.01\State=1-A\HF=-558.394288
 4\RMSD=3.547e-09\Dipole=0.8562261,-0.8974147,-0.1122356\Quadrupole=-4.
 2455862,3.8702247,0.3753615,2.4739715,-1.5000846,0.0058344\PG=C01 [X(C
 11H15N1O1)]\\@


 If your ship doesn't come in, swim out to it!
                          -- Jonathan Winters
 Job cpu time:       0 days  0 hours 47 minutes 56.1 seconds.
 File lengths (MBytes):  RWF=     95 Int=      0 D2E=      0 Chk=     10 Scr=      1
 Normal termination of Gaussian 09 at Sun Jul 11 13:54:34 2021.
