 Entering Gaussian System, Link 0=g09
 Initial command:
 /home/apps/iiser/g09/g09/l1.exe "/home/aloke/aloke/prakash/Gau-26280.inp" -scrdir="/home/aloke/aloke/prakash/"
 Entering Link 1 = /home/apps/iiser/g09/g09/l1.exe PID=     26281.
  
 Copyright (c) 1988,1990,1992,1993,1995,1998,2003,2009,2013,
            Gaussian, Inc.  All Rights Reserved.
  
 This is part of the Gaussian(R) 09 program.  It is based on
 the Gaussian(R) 03 system (copyright 2003, Gaussian, Inc.),
 the Gaussian(R) 98 system (copyright 1998, Gaussian, Inc.),
 the Gaussian(R) 94 system (copyright 1995, Gaussian, Inc.),
 the Gaussian 92(TM) system (copyright 1992, Gaussian, Inc.),
 the Gaussian 90(TM) system (copyright 1990, Gaussian, Inc.),
 the Gaussian 88(TM) system (copyright 1988, Gaussian, Inc.),
 the Gaussian 86(TM) system (copyright 1986, Carnegie Mellon
 University), and the Gaussian 82(TM) system (copyright 1983,
 Carnegie Mellon University). Gaussian is a federally registered
 trademark of Gaussian, Inc.
  
 This software contains proprietary and confidential information,
 including trade secrets, belonging to Gaussian, Inc.
  
 This software is provided under written license and may be
 used, copied, transmitted, or stored only in accord with that
 written license.
  
 The following legend is applicable only to US Government
 contracts under FAR:
  
                    RESTRICTED RIGHTS LEGEND
  
 Use, reproduction and disclosure by the US Government is
 subject to restrictions as set forth in subparagraphs (a)
 and (c) of the Commercial Computer Software - Restricted
 Rights clause in FAR 52.227-19.
  
 Gaussian, Inc.
 340 Quinnipiac St., Bldg. 40, Wallingford CT 06492
  
  
 ---------------------------------------------------------------
 Warning -- This program may not be used in any manner that
 competes with the business of Gaussian, Inc. or will provide
 assistance to any competitor of Gaussian, Inc.  The licensee
 of this program is prohibited from giving any competitor of
 Gaussian, Inc. access to this program.  By using this program,
 the user acknowledges that Gaussian, Inc. is engaged in the
 business of creating and licensing software in the field of
 computational chemistry and represents and warrants to the
 licensee that it is not a competitor of Gaussian, Inc. and that
 it will not use this program in any manner prohibited above.
 ---------------------------------------------------------------
  

 Cite this work as:
 Gaussian 09, Revision D.01,
 M. J. Frisch, G. W. Trucks, H. B. Schlegel, G. E. Scuseria, 
 M. A. Robb, J. R. Cheeseman, G. Scalmani, V. Barone, B. Mennucci, 
 G. A. Petersson, H. Nakatsuji, M. Caricato, X. Li, H. P. Hratchian, 
 A. F. Izmaylov, J. Bloino, G. Zheng, J. L. Sonnenberg, M. Hada, 
 M. Ehara, K. Toyota, R. Fukuda, J. Hasegawa, M. Ishida, T. Nakajima, 
 Y. Honda, O. Kitao, H. Nakai, T. Vreven, J. A. Montgomery, Jr., 
 J. E. Peralta, F. Ogliaro, M. Bearpark, J. J. Heyd, E. Brothers, 
 K. N. Kudin, V. N. Staroverov, T. Keith, R. Kobayashi, J. Normand, 
 K. Raghavachari, A. Rendell, J. C. Burant, S. S. Iyengar, J. Tomasi, 
 M. Cossi, N. Rega, J. M. Millam, M. Klene, J. E. Knox, J. B. Cross, 
 V. Bakken, C. Adamo, J. Jaramillo, R. Gomperts, R. E. Stratmann, 
 O. Yazyev, A. J. Austin, R. Cammi, C. Pomelli, J. W. Ochterski, 
 R. L. Martin, K. Morokuma, V. G. Zakrzewski, G. A. Voth, 
 P. Salvador, J. J. Dannenberg, S. Dapprich, A. D. Daniels, 
 O. Farkas, J. B. Foresman, J. V. Ortiz, J. Cioslowski, 
 and D. J. Fox, Gaussian, Inc., Wallingford CT, 2013.
 
 ******************************************
 Gaussian 09:  AM64L-G09RevD.01 24-Apr-2013
                12-Jul-2021 
 ******************************************
 %LindaWorkers=cn131
 %chk=mod_bp_n.chk
 %mem=128GB
 %nprocshared=48
 Will use up to   48 processors via shared memory.
 SetLPE:  input flags=" -opt "Tsnet.Node.lindarsharg: ssh" "
 SetLPE:    new flags=" -opt "Tsnet.Node.lindarsharg: ssh"  -nodelist 'cn131'"
 Will use up to    1 processors via Linda.
 ----------------------------------------------------------------------
 # b3lyp/def2tzvp empiricaldispersion=gd3 pop=nbo6read pop=saveNBOs int
 =(grid=ultrafine) scf=(tight,maxcycle=300)
 ----------------------------------------------------------------------
 1/38=1,163=2/1;
 2/12=2,17=6,18=5,40=1/2;
 3/5=44,7=101,11=2,16=1,25=1,30=1,74=-5,75=-5,124=31/1,2,3;
 4//1;
 5/5=2,7=300,32=2,38=5/2;
 6/7=2,8=2,9=2,10=2,28=1,40=2,73=1,113=1,114=1,124=2103/1,12;
 99/5=1,9=1/99;
 ---------------------------------------------
 Energy Optimisation and Frequency calculation
 ---------------------------------------------
 Symbolic Z-matrix:
 Charge =  0 Multiplicity = 1
 C                    -0.80314  -0.84964   0.38167 
 C                    -2.0598   -1.41311   0.16624 
 C                    -3.11746  -0.66634  -0.33988 
 C                    -2.9233    0.67371  -0.64457 
 C                    -1.68299   1.25926  -0.42128 
 C                    -0.62326   0.51531   0.0986 
 H                    -2.20517  -2.46595   0.37956 
 H                    -4.08009  -1.13274  -0.50602 
 H                    -3.73423   1.26678  -1.04844 
 H                    -1.53921   2.30664  -0.65035 
 N                     0.6588    1.0946    0.33896 
 C                     1.10521   2.10039  -0.61274 
 H                     0.61239   3.07447  -0.47993 
 H                     2.18028   2.24145  -0.49422 
 H                     0.93      1.74682  -1.62702 
 C                     0.87892   1.50395   1.72195 
 H                     0.55984   0.71976   2.40649 
 H                     1.9427    1.69192   1.88253 
 H                     0.32344   2.41985   1.97466 
 C                     0.34618  -1.72233   0.82641 
 H                     0.80771  -1.3408    1.74175 
 H                    -0.04946  -2.70733   1.07806 
 C                     1.44091  -1.88569  -0.24608 
 H                     2.01565  -2.79332  -0.02032 
 H                     1.01458  -2.01125  -1.24233 
 C                     2.46294  -0.77588  -0.28535 
 H                     2.82883  -0.45754   0.71421 
 O                     2.95449  -0.33234  -1.29389 
 
                          Input orientation:                          
 ---------------------------------------------------------------------
 Center     Atomic      Atomic             Coordinates (Angstroms)
 Number     Number       Type             X           Y           Z
 ---------------------------------------------------------------------
      1          6           0       -0.803143   -0.849642    0.381667
      2          6           0       -2.059800   -1.413105    0.166240
      3          6           0       -3.117455   -0.666342   -0.339884
      4          6           0       -2.923300    0.673714   -0.644571
      5          6           0       -1.682990    1.259263   -0.421275
      6          6           0       -0.623262    0.515306    0.098602
      7          1           0       -2.205166   -2.465952    0.379562
      8          1           0       -4.080092   -1.132744   -0.506019
      9          1           0       -3.734230    1.266782   -1.048442
     10          1           0       -1.539212    2.306641   -0.650345
     11          7           0        0.658795    1.094598    0.338956
     12          6           0        1.105212    2.100387   -0.612735
     13          1           0        0.612389    3.074474   -0.479929
     14          1           0        2.180284    2.241454   -0.494220
     15          1           0        0.930000    1.746817   -1.627016
     16          6           0        0.878921    1.503947    1.721952
     17          1           0        0.559836    0.719757    2.406494
     18          1           0        1.942702    1.691915    1.882525
     19          1           0        0.323435    2.419846    1.974663
     20          6           0        0.346179   -1.722333    0.826405
     21          1           0        0.807710   -1.340795    1.741747
     22          1           0       -0.049460   -2.707332    1.078059
     23          6           0        1.440911   -1.885685   -0.246084
     24          1           0        2.015649   -2.793324   -0.020321
     25          1           0        1.014576   -2.011245   -1.242330
     26          6           0        2.462941   -0.775881   -0.285349
     27          1           0        2.828833   -0.457539    0.714208
     28          8           0        2.954488   -0.332339   -1.293892
 ---------------------------------------------------------------------
                    Distance matrix (angstroms):
                    1          2          3          4          5
     1  C    0.000000
     2  C    1.393946   0.000000
     3  C    2.431106   1.390126   0.000000
     4  C    2.805146   2.399554   1.387905   0.000000
     5  C    2.422050   2.762012   2.402555   1.389639   0.000000
     6  C    1.405548   2.405615   2.794559   2.422308   1.395266
     7  H    2.139657   1.084032   2.142071   3.379655   3.845937
     8  H    3.406835   2.147583   1.082498   2.149571   3.387474
     9  H    3.887896   3.385404   2.149287   1.082797   2.144990
    10  H    3.401319   3.843739   3.380217   2.140604   1.081733
    11  N    2.432932   3.702589   4.221587   3.738432   2.467595
    12  C    3.651483   4.792570   5.055705   4.273794   2.918598
    13  H    4.259667   5.262746   5.284416   4.276898   2.926977
    14  H    4.384392   5.636517   6.045257   5.341066   3.986842
    15  H    3.712168   4.705293   4.884868   4.118819   2.918773
    16  C    3.188273   4.423292   4.993230   4.554844   3.349131
    17  H    2.901836   4.053434   4.794406   4.630697   3.649330
    18  H    4.031346   5.348533   6.008799   5.576820   4.317444
    19  H    3.807409   4.862275   5.169275   4.522240   3.333649
    20  C    1.510074   2.513996   3.804222   4.312111   3.816300
    21  H    2.164693   3.272624   4.493884   4.865511   4.200304
    22  H    2.122266   2.558887   3.948265   4.760030   4.544260
    23  C    2.550144   3.556448   4.719565   5.075003   4.436231
    24  H    3.447475   4.306866   5.565513   6.066569   5.501287
    25  H    2.700146   3.434185   4.438114   4.803456   4.318242
    26  C    3.334315   4.589681   5.581737   5.589451   4.620501
    27  H    3.668185   5.011198   6.042603   6.017728   4.959161
    28  O    4.146672   5.333210   6.155500   5.998512   4.980046
                    6          7          8          9         10
     6  C    0.000000
     7  H    3.386629   0.000000
     8  H    3.877023   2.465166   0.000000
     9  H    3.399786   4.279081   2.484264   0.000000
    10  H    2.146804   4.927661   4.278583   2.461279   0.000000
    11  N    1.427242   4.569621   5.303969   4.610118   2.697962
    12  C    2.450735   5.726666   6.111620   4.930004   2.652722
    13  H    2.900150   6.274844   6.302439   4.741735   2.290850
    14  H    3.345280   6.492714   7.111797   6.019852   3.723342
    15  H    2.628117   5.621658   5.886385   4.724428   2.713724
    16  C    2.422649   5.203240   6.042169   5.386325   3.481304
    17  H    2.601516   4.680003   5.783029   5.538486   4.033419
    18  H    3.339306   6.062307   7.068089   6.403035   4.349373
    19  H    2.836038   5.727931   6.177842   5.189737   3.220704
    20  C    2.544905   2.694810   4.659919   5.394404   4.687016
    21  H    2.862292   3.492699   5.383897   5.934124   4.953174
    22  H    3.416721   2.278866   4.608104   5.821780   5.508781
    23  C    3.185024   3.744599   5.578168   6.112603   5.159473
    24  H    4.233796   4.252336   6.336520   7.113551   6.248489
    25  H    3.296069   3.633735   5.222026   5.773579   5.051378
    26  C    3.367377   5.008959   6.556472   6.569605   5.064819
    27  H    3.639005   5.430180   7.048269   7.010992   5.346262
    28  O    3.931646   5.828789   7.123672   6.881597   5.250877
                   11         12         13         14         15
    11  N    0.000000
    12  C    1.454859   0.000000
    13  H    2.143043   1.099708   0.000000
    14  H    2.079517   1.090745   1.775506   0.000000
    15  H    2.089016   1.088337   1.783076   1.758153   0.000000
    16  C    1.459007   2.420271   2.717697   2.673739   3.358152
    17  H    2.103571   3.364419   3.725438   3.654525   4.178645
    18  H    2.094710   2.663562   3.043418   2.450991   3.653144
    19  H    2.131733   2.721738   2.556766   3.094365   3.713890
    20  C    2.875836   4.154569   4.978628   4.562850   4.288954
    21  H    2.814452   4.180171   4.946574   4.440272   4.571309
    22  H    3.937330   5.225535   6.024504   5.651044   5.302473
    23  C    3.136250   4.016951   5.034313   4.200181   3.919576
    24  H    4.133530   5.012809   6.050738   5.059711   4.936900
    25  H    3.503328   4.160544   5.158250   4.472582   3.778646
    26  C    2.672712   3.197425   4.276405   3.037735   3.242527
    27  H    2.694255   3.357772   4.337477   3.027454   3.734445
    28  O    3.157934   3.130807   4.213590   2.804154   2.921029
                   16         17         18         19         20
    16  C    0.000000
    17  H    1.088746   0.000000
    18  H    1.092129   1.769732   0.000000
    19  H    1.100590   1.769934   1.777751   0.000000
    20  C    3.390384   2.916528   3.914251   4.298449   0.000000
    21  H    2.845702   2.179267   3.241197   3.798841   1.093816
    22  H    4.360202   3.725711   4.895840   5.218324   1.090909
    23  C    3.959622   3.821098   4.193089   4.971727   1.541219
    24  H    4.774328   4.511160   4.872732   5.832726   2.156640
    25  H    4.600211   4.580292   4.933511   5.519175   2.193146
    26  C    3.425783   3.620050   3.325709   4.460696   2.571468
    27  H    2.943660   3.065649   2.601989   4.018098   2.788523
    28  O    4.095759   4.531459   3.900121   5.018009   3.637447
                   21         22         23         24         25
    21  H    0.000000
    22  H    1.744318   0.000000
    23  C    2.156228   2.156308   0.000000
    24  H    2.583378   2.340621   1.097771   0.000000
    25  H    3.065455   2.645924   1.090886   1.762697   0.000000
    26  C    2.677319   3.449861   1.509222   2.083359   2.130657
    27  H    2.433293   3.671311   2.210902   2.580057   3.087648
    28  O    3.852369   4.504492   2.408672   2.925722   2.566056
                   26         27         28
    26  C    0.000000
    27  H    1.111005   0.000000
    28  O    1.206444   2.015919   0.000000
 Stoichiometry    C11H15NO
 Framework group  C1[X(C11H15NO)]
 Deg. of freedom    78
 Full point group                 C1      NOp   1
 Largest Abelian subgroup         C1      NOp   1
 Largest concise Abelian subgroup C1      NOp   1
                         Standard orientation:                         
 ---------------------------------------------------------------------
 Center     Atomic      Atomic             Coordinates (Angstroms)
 Number     Number       Type             X           Y           Z
 ---------------------------------------------------------------------
      1          6           0       -0.803143   -0.849642    0.381667
      2          6           0       -2.059800   -1.413105    0.166240
      3          6           0       -3.117455   -0.666342   -0.339884
      4          6           0       -2.923300    0.673714   -0.644571
      5          6           0       -1.682990    1.259263   -0.421275
      6          6           0       -0.623262    0.515306    0.098602
      7          1           0       -2.205166   -2.465952    0.379562
      8          1           0       -4.080092   -1.132744   -0.506019
      9          1           0       -3.734230    1.266782   -1.048442
     10          1           0       -1.539212    2.306641   -0.650345
     11          7           0        0.658795    1.094598    0.338956
     12          6           0        1.105212    2.100387   -0.612735
     13          1           0        0.612389    3.074474   -0.479929
     14          1           0        2.180284    2.241454   -0.494220
     15          1           0        0.930000    1.746817   -1.627016
     16          6           0        0.878921    1.503947    1.721952
     17          1           0        0.559836    0.719757    2.406494
     18          1           0        1.942702    1.691915    1.882525
     19          1           0        0.323435    2.419846    1.974663
     20          6           0        0.346179   -1.722333    0.826405
     21          1           0        0.807710   -1.340795    1.741747
     22          1           0       -0.049460   -2.707332    1.078059
     23          6           0        1.440911   -1.885685   -0.246084
     24          1           0        2.015649   -2.793324   -0.020321
     25          1           0        1.014576   -2.011245   -1.242330
     26          6           0        2.462941   -0.775881   -0.285349
     27          1           0        2.828833   -0.457539    0.714208
     28          8           0        2.954488   -0.332339   -1.293892
 ---------------------------------------------------------------------
 Rotational constants (GHZ):      1.1868138      0.6639050      0.5263637
 Standard basis: def2TZVP (5D, 7F)
 There are   558 symmetry adapted cartesian basis functions of A   symmetry.
 There are   493 symmetry adapted basis functions of A   symmetry.
   493 basis functions,   783 primitive gaussians,   558 cartesian basis functions
    48 alpha electrons       48 beta electrons
       nuclear repulsion energy       809.3769019920 Hartrees.
 NAtoms=   28 NActive=   28 NUniq=   28 SFac= 1.00D+00 NAtFMM=   60 NAOKFM=F Big=F
 Integral buffers will be    131072 words long.
 Raffenetti 2 integral format.
 Two-electron integral symmetry is turned on.
 Nuclear repulsion after empirical dispersion term =      809.3481158128 Hartrees.
 One-electron integrals computed using PRISM.
   1 Symmetry operations used in ECPInt.
 ECPInt:  NShTT=   20706 NPrTT=   61756 LenC2=   19892 LenP2D=   45372.
 LDataN:  DoStor=T MaxTD1= 6 Len=  172
 NBasis=   493 RedAO= T EigKep=  5.60D-06  NBF=   493
 NBsUse=   493 1.00D-06 EigRej= -1.00D+00 NBFU=   493
 ExpMin= 9.52D-02 ExpMax= 2.70D+04 ExpMxC= 9.22D+02 IAcc=3 IRadAn=         5 AccDes= 0.00D+00
 Harris functional with IExCor=  402 and IRadAn=       5 diagonalized for initial guess.
 HarFok:  IExCor=  402 AccDes= 0.00D+00 IRadAn=         5 IDoV= 1 UseB2=F ITyADJ=14
 ICtDFT=  3500011 ScaDFX=  1.000000  1.000000  1.000000  1.000000
 FoFCou: FMM=F IPFlag=           0 FMFlag=      100000 FMFlg1=           0
         NFxFlg=           0 DoJE=T BraDBF=F KetDBF=T FulRan=T
         wScrn=  0.000000 ICntrl=     500 IOpCl=  0 I1Cent=   200000004 NGrid=           0
         NMat0=    1 NMatS0=      1 NMatT0=    0 NMatD0=    1 NMtDS0=    0 NMtDT0=    0
 Petite list used in FoFCou.
 Keep R1 ints in memory in canonical form, NReq=7502545268.
 Requested convergence on RMS density matrix=1.00D-08 within 300 cycles.
 Requested convergence on MAX density matrix=1.00D-06.
 Requested convergence on             energy=1.00D-06.
 No special actions if energy rises.
 Integral accuracy reduced to 1.0D-05 until final iterations.
 Initial convergence to 1.0D-05 achieved.  Increase integral accuracy.
 SCF Done:  E(RB3LYP) =  -558.396508010     A.U. after   14 cycles
            NFock= 14  Conv=0.60D-08     -V/T= 2.0052

 **********************************************************************

            Population analysis using the SCF density.

 **********************************************************************

 Orbital symmetries:
       Occupied  (A) (A) (A) (A) (A) (A) (A) (A) (A) (A) (A) (A)
                 (A) (A) (A) (A) (A) (A) (A) (A) (A) (A) (A) (A)
                 (A) (A) (A) (A) (A) (A) (A) (A) (A) (A) (A) (A)
                 (A) (A) (A) (A) (A) (A) (A) (A) (A) (A) (A) (A)
       Virtual   (A) (A) (A) (A) (A) (A) (A) (A) (A) (A) (A) (A)
                 (A) (A) (A) (A) (A) (A) (A) (A) (A) (A) (A) (A)
                 (A) (A) (A) (A) (A) (A) (A) (A) (A) (A) (A) (A)
                 (A) (A) (A) (A) (A) (A) (A) (A) (A) (A) (A) (A)
                 (A) (A) (A) (A) (A) (A) (A) (A) (A) (A) (A) (A)
                 (A) (A) (A) (A) (A) (A) (A) (A) (A) (A) (A) (A)
                 (A) (A) (A) (A) (A) (A) (A) (A) (A) (A) (A) (A)
                 (A) (A) (A) (A) (A) (A) (A) (A) (A) (A) (A) (A)
                 (A) (A) (A) (A) (A) (A) (A) (A) (A) (A) (A) (A)
                 (A) (A) (A) (A) (A) (A) (A) (A) (A) (A) (A) (A)
                 (A) (A) (A) (A) (A) (A) (A) (A) (A) (A) (A) (A)
                 (A) (A) (A) (A) (A) (A) (A) (A) (A) (A) (A) (A)
                 (A) (A) (A) (A) (A) (A) (A) (A) (A) (A) (A) (A)
                 (A) (A) (A) (A) (A) (A) (A) (A) (A) (A) (A) (A)
                 (A) (A) (A) (A) (A) (A) (A) (A) (A) (A) (A) (A)
                 (A) (A) (A) (A) (A) (A) (A) (A) (A) (A) (A) (A)
                 (A) (A) (A) (A) (A) (A) (A) (A) (A) (A) (A) (A)
                 (A) (A) (A) (A) (A) (A) (A) (A) (A) (A) (A) (A)
                 (A) (A) (A) (A) (A) (A) (A) (A) (A) (A) (A) (A)
                 (A) (A) (A) (A) (A) (A) (A) (A) (A) (A) (A) (A)
                 (A) (A) (A) (A) (A) (A) (A) (A) (A) (A) (A) (A)
                 (A) (A) (A) (A) (A) (A) (A) (A) (A) (A) (A) (A)
                 (A) (A) (A) (A) (A) (A) (A) (A) (A) (A) (A) (A)
                 (A) (A) (A) (A) (A) (A) (A) (A) (A) (A) (A) (A)
                 (A) (A) (A) (A) (A) (A) (A) (A) (A) (A) (A) (A)
                 (A) (A) (A) (A) (A) (A) (A) (A) (A) (A) (A) (A)
                 (A) (A) (A) (A) (A) (A) (A) (A) (A) (A) (A) (A)
                 (A) (A) (A) (A) (A) (A) (A) (A) (A) (A) (A) (A)
                 (A) (A) (A) (A) (A) (A) (A) (A) (A) (A) (A) (A)
                 (A) (A) (A) (A) (A) (A) (A) (A) (A) (A) (A) (A)
                 (A) (A) (A) (A) (A) (A) (A) (A) (A) (A) (A) (A)
                 (A) (A) (A) (A) (A) (A) (A) (A) (A) (A) (A) (A)
                 (A) (A) (A) (A) (A) (A) (A) (A) (A) (A) (A) (A)
                 (A) (A) (A) (A) (A) (A) (A) (A) (A) (A) (A) (A)
                 (A) (A) (A) (A) (A) (A) (A) (A) (A) (A) (A) (A)
                 (A) (A) (A) (A) (A) (A) (A) (A) (A) (A) (A) (A)
                 (A) (A) (A) (A) (A) (A) (A) (A) (A) (A) (A) (A)
                 (A)
 The electronic state is 1-A.
 Alpha  occ. eigenvalues --  -19.10868 -14.32903 -10.25139 -10.21047 -10.20168
 Alpha  occ. eigenvalues --  -10.19136 -10.18644 -10.18588 -10.17988 -10.17810
 Alpha  occ. eigenvalues --  -10.17766 -10.17680 -10.17568  -1.03715  -0.94644
 Alpha  occ. eigenvalues --   -0.85855  -0.80520  -0.75124  -0.74658  -0.71809
 Alpha  occ. eigenvalues --   -0.67256  -0.64913  -0.60365  -0.58147  -0.56976
 Alpha  occ. eigenvalues --   -0.52314  -0.49063  -0.48597  -0.47324  -0.46489
 Alpha  occ. eigenvalues --   -0.44939  -0.44647  -0.43974  -0.43355  -0.41295
 Alpha  occ. eigenvalues --   -0.40634  -0.39414  -0.38700  -0.38014  -0.37670
 Alpha  occ. eigenvalues --   -0.36770  -0.35853  -0.35018  -0.33959  -0.27024
 Alpha  occ. eigenvalues --   -0.25853  -0.24669  -0.22374
 Alpha virt. eigenvalues --   -0.01932  -0.01617  -0.01084   0.03036   0.04553
 Alpha virt. eigenvalues --    0.04828   0.06215   0.07099   0.08093   0.08692
 Alpha virt. eigenvalues --    0.09353   0.09684   0.10142   0.11264   0.12104
 Alpha virt. eigenvalues --    0.12414   0.13072   0.13274   0.14519   0.15050
 Alpha virt. eigenvalues --    0.15635   0.15935   0.18061   0.18728   0.19483
 Alpha virt. eigenvalues --    0.20362   0.20818   0.21682   0.22363   0.23020
 Alpha virt. eigenvalues --    0.23823   0.24709   0.24740   0.25816   0.26891
 Alpha virt. eigenvalues --    0.27552   0.28579   0.29331   0.30110   0.31300
 Alpha virt. eigenvalues --    0.31489   0.32511   0.33305   0.34061   0.34177
 Alpha virt. eigenvalues --    0.35206   0.36397   0.36552   0.36999   0.37430
 Alpha virt. eigenvalues --    0.38064   0.38551   0.39400   0.40317   0.40655
 Alpha virt. eigenvalues --    0.41414   0.41782   0.42292   0.42721   0.42830
 Alpha virt. eigenvalues --    0.44206   0.44659   0.44823   0.45290   0.45564
 Alpha virt. eigenvalues --    0.45933   0.46772   0.47393   0.48106   0.49098
 Alpha virt. eigenvalues --    0.49499   0.50176   0.50354   0.50847   0.51332
 Alpha virt. eigenvalues --    0.53155   0.53401   0.54682   0.55258   0.56863
 Alpha virt. eigenvalues --    0.57567   0.60393   0.60938   0.62190   0.63080
 Alpha virt. eigenvalues --    0.63362   0.65613   0.66954   0.67757   0.68669
 Alpha virt. eigenvalues --    0.69186   0.70443   0.71134   0.72060   0.73112
 Alpha virt. eigenvalues --    0.75882   0.76786   0.77269   0.79024   0.80388
 Alpha virt. eigenvalues --    0.81855   0.81954   0.82806   0.85178   0.86015
 Alpha virt. eigenvalues --    0.87295   0.87600   0.87846   0.89633   0.90699
 Alpha virt. eigenvalues --    0.91034   0.92917   0.93796   0.94505   0.95010
 Alpha virt. eigenvalues --    0.96899   0.98171   0.99309   1.00637   1.01626
 Alpha virt. eigenvalues --    1.02205   1.05090   1.05382   1.06347   1.07677
 Alpha virt. eigenvalues --    1.08118   1.10368   1.11495   1.13429   1.14188
 Alpha virt. eigenvalues --    1.15485   1.16452   1.17637   1.19388   1.20828
 Alpha virt. eigenvalues --    1.22004   1.23076   1.23514   1.25853   1.26792
 Alpha virt. eigenvalues --    1.27403   1.28018   1.29333   1.30106   1.31385
 Alpha virt. eigenvalues --    1.34591   1.35187   1.37947   1.39898   1.41455
 Alpha virt. eigenvalues --    1.42723   1.43658   1.44708   1.47403   1.48197
 Alpha virt. eigenvalues --    1.49440   1.50039   1.50317   1.51920   1.52654
 Alpha virt. eigenvalues --    1.53605   1.54344   1.54822   1.55436   1.56221
 Alpha virt. eigenvalues --    1.57223   1.58097   1.59555   1.59668   1.60736
 Alpha virt. eigenvalues --    1.61157   1.61870   1.63338   1.64345   1.65393
 Alpha virt. eigenvalues --    1.67688   1.68063   1.68494   1.69616   1.70273
 Alpha virt. eigenvalues --    1.72788   1.73411   1.73732   1.74100   1.76680
 Alpha virt. eigenvalues --    1.78615   1.80759   1.81299   1.82550   1.83494
 Alpha virt. eigenvalues --    1.86538   1.89327   1.90904   1.91340   1.93102
 Alpha virt. eigenvalues --    1.94595   1.96037   1.97742   1.99271   2.00705
 Alpha virt. eigenvalues --    2.02064   2.02265   2.04924   2.06268   2.06880
 Alpha virt. eigenvalues --    2.08519   2.10239   2.11613   2.12575   2.15518
 Alpha virt. eigenvalues --    2.16349   2.17074   2.18707   2.19899   2.21409
 Alpha virt. eigenvalues --    2.22545   2.24216   2.24818   2.25933   2.27400
 Alpha virt. eigenvalues --    2.27999   2.29062   2.30898   2.33501   2.35653
 Alpha virt. eigenvalues --    2.36893   2.37175   2.38458   2.40462   2.41235
 Alpha virt. eigenvalues --    2.43114   2.44323   2.45078   2.45927   2.49287
 Alpha virt. eigenvalues --    2.49968   2.50963   2.51254   2.53453   2.53566
 Alpha virt. eigenvalues --    2.55214   2.56491   2.57672   2.58353   2.59409
 Alpha virt. eigenvalues --    2.60517   2.61115   2.62755   2.63484   2.64288
 Alpha virt. eigenvalues --    2.64680   2.65637   2.66569   2.66990   2.68244
 Alpha virt. eigenvalues --    2.70039   2.70966   2.71482   2.72871   2.73122
 Alpha virt. eigenvalues --    2.74219   2.74960   2.76715   2.78065   2.78763
 Alpha virt. eigenvalues --    2.80656   2.81770   2.83068   2.84544   2.85455
 Alpha virt. eigenvalues --    2.86089   2.87954   2.89385   2.90180   2.90480
 Alpha virt. eigenvalues --    2.91962   2.94226   2.96259   2.97490   2.98216
 Alpha virt. eigenvalues --    3.00539   3.01276   3.02491   3.05492   3.06527
 Alpha virt. eigenvalues --    3.07313   3.07683   3.09676   3.10423   3.10853
 Alpha virt. eigenvalues --    3.11680   3.12793   3.14399   3.15764   3.16507
 Alpha virt. eigenvalues --    3.17491   3.17788   3.18437   3.19222   3.20399
 Alpha virt. eigenvalues --    3.21310   3.22296   3.23009   3.24240   3.25254
 Alpha virt. eigenvalues --    3.26613   3.26895   3.28043   3.29323   3.29597
 Alpha virt. eigenvalues --    3.31304   3.32215   3.33430   3.33590   3.34801
 Alpha virt. eigenvalues --    3.35446   3.36611   3.37412   3.37834   3.38907
 Alpha virt. eigenvalues --    3.39566   3.40025   3.41064   3.43950   3.45926
 Alpha virt. eigenvalues --    3.46548   3.47494   3.49020   3.50544   3.51106
 Alpha virt. eigenvalues --    3.51611   3.52209   3.54866   3.56127   3.56953
 Alpha virt. eigenvalues --    3.58438   3.60143   3.61034   3.62778   3.63706
 Alpha virt. eigenvalues --    3.65487   3.67012   3.68879   3.71469   3.72742
 Alpha virt. eigenvalues --    3.74125   3.76119   3.76771   3.78488   3.79380
 Alpha virt. eigenvalues --    3.80889   3.85619   3.86950   3.87648   3.90025
 Alpha virt. eigenvalues --    3.90475   3.92490   3.93358   3.95262   4.00023
 Alpha virt. eigenvalues --    4.01869   4.03320   4.07017   4.09215   4.09752
 Alpha virt. eigenvalues --    4.12333   4.14741   4.15534   4.17673   4.19481
 Alpha virt. eigenvalues --    4.21547   4.23649   4.24758   4.26065   4.26917
 Alpha virt. eigenvalues --    4.28051   4.29718   4.31623   4.33247   4.34443
 Alpha virt. eigenvalues --    4.34814   4.36798   4.40185   4.41352   4.43962
 Alpha virt. eigenvalues --    4.44527   4.46869   4.48902   4.54605   4.58628
 Alpha virt. eigenvalues --    4.60553   4.64803   4.67465   4.70255   4.71776
 Alpha virt. eigenvalues --    4.75604   4.80910   4.83464   4.89940   4.92001
 Alpha virt. eigenvalues --    4.94020   4.96818   5.00677   5.06434   5.12967
 Alpha virt. eigenvalues --    5.14724   5.19540   5.20601   5.24152   5.26284
 Alpha virt. eigenvalues --    5.28639   5.32637   5.36697   5.39456   5.45706
 Alpha virt. eigenvalues --    5.49223   5.55213   5.56671   5.57214   5.67619
 Alpha virt. eigenvalues --    5.75660   5.77071   5.94316   6.00124   6.13201
 Alpha virt. eigenvalues --    6.33654   6.37352   6.41461   6.48340   6.85602
 Alpha virt. eigenvalues --    6.94470   7.07643  22.15019  22.44195  22.45961
 Alpha virt. eigenvalues --   22.48336  22.54250  22.63625  22.69999  22.86662
 Alpha virt. eigenvalues --   22.89138  22.92575  23.36287  32.74645  43.88619
          Condensed to atoms (all electrons):
               1          2          3          4          5          6
     1  C    5.189238   0.432868   0.023374  -0.095427   0.038816   0.355932
     2  C    0.432868   5.031651   0.439686   0.019450  -0.099192  -0.009234
     3  C    0.023374   0.439686   4.943961   0.448084   0.017239  -0.095808
     4  C   -0.095427   0.019450   0.448084   4.980860   0.397478   0.006296
     5  C    0.038816  -0.099192   0.017239   0.397478   5.128712   0.398241
     6  C    0.355932  -0.009234  -0.095808   0.006296   0.398241   5.145920
     7  H   -0.069880   0.435433  -0.058689   0.012550  -0.004588   0.022850
     8  H    0.013567  -0.058126   0.431285  -0.052867   0.011820  -0.002697
     9  H   -0.000937   0.009048  -0.050527   0.421040  -0.047818   0.011213
    10  H    0.009773  -0.001670   0.009899  -0.045621   0.438017  -0.064569
    11  N   -0.083134   0.003966   0.000394   0.008935  -0.066187   0.266272
    12  C    0.010431   0.000117   0.000199  -0.000813   0.002492  -0.081496
    13  H   -0.002292  -0.000095   0.000114  -0.001536   0.000376  -0.014760
    14  H   -0.000304   0.000000   0.000002   0.000083   0.001618   0.010500
    15  H    0.003464   0.000202  -0.000303   0.000865  -0.010253   0.006049
    16  C    0.019120   0.002193  -0.000184   0.000570  -0.012200  -0.080238
    17  H    0.003948   0.002297  -0.000321   0.000514   0.000327  -0.013451
    18  H   -0.000578  -0.000043  -0.000014   0.000138   0.000080   0.014336
    19  H   -0.001866  -0.000433   0.000025  -0.001634   0.002546  -0.001009
    20  C    0.305591  -0.059701   0.015354  -0.006573   0.020330  -0.096228
    21  H   -0.047383   0.002828  -0.001234   0.000663  -0.000435  -0.005175
    22  H   -0.070959   0.009181   0.000702   0.000293  -0.000976   0.008728
    23  C   -0.028326  -0.013644   0.002429  -0.002016   0.007384  -0.013872
    24  H    0.010409   0.000972  -0.000151   0.000047  -0.000164   0.000335
    25  H   -0.003121  -0.000614  -0.000677   0.000518  -0.001222   0.010432
    26  C    0.004119  -0.000578  -0.000092   0.000305  -0.002601  -0.011824
    27  H    0.005100  -0.000252  -0.000060   0.000138  -0.001028   0.004821
    28  O    0.004175   0.000152  -0.000044   0.000088  -0.000449  -0.000821
               7          8          9         10         11         12
     1  C   -0.069880   0.013567  -0.000937   0.009773  -0.083134   0.010431
     2  C    0.435433  -0.058126   0.009048  -0.001670   0.003966   0.000117
     3  C   -0.058689   0.431285  -0.050527   0.009899   0.000394   0.000199
     4  C    0.012550  -0.052867   0.421040  -0.045621   0.008935  -0.000813
     5  C   -0.004588   0.011820  -0.047818   0.438017  -0.066187   0.002492
     6  C    0.022850  -0.002697   0.011213  -0.064569   0.266272  -0.081496
     7  H    0.580869  -0.007698  -0.000374   0.000053  -0.000391   0.000047
     8  H   -0.007698   0.566291  -0.007007  -0.000276   0.000031  -0.000003
     9  H   -0.000374  -0.007007   0.564960  -0.006822  -0.000355  -0.000036
    10  H    0.000053  -0.000276  -0.006822   0.559955  -0.005179   0.001862
    11  N   -0.000391   0.000031  -0.000355  -0.005179   6.749844   0.271861
    12  C    0.000047  -0.000003  -0.000036   0.001862   0.271861   4.926708
    13  H   -0.000004   0.000000   0.000053   0.003198  -0.032206   0.395749
    14  H    0.000000   0.000000  -0.000004  -0.000030  -0.044772   0.410128
    15  H    0.000008  -0.000001  -0.000003  -0.002039  -0.041720   0.417568
    16  C    0.000078  -0.000011   0.000015  -0.000317   0.259001  -0.065724
    17  H    0.000057  -0.000002  -0.000002  -0.000046  -0.036620   0.011141
    18  H    0.000001   0.000000  -0.000002  -0.000084  -0.052148  -0.003351
    19  H   -0.000014   0.000001   0.000037   0.000846  -0.034427  -0.010859
    20  C   -0.015317  -0.000377   0.000158  -0.000180   0.037894  -0.004048
    21  H    0.000779   0.000009  -0.000005  -0.000011  -0.012603   0.000506
    22  H    0.007034  -0.000103  -0.000001   0.000016   0.001261  -0.000063
    23  C    0.000064   0.000036  -0.000020   0.000029  -0.024242   0.004110
    24  H   -0.000043  -0.000002   0.000000  -0.000001   0.001601  -0.000048
    25  H    0.000509   0.000007  -0.000001  -0.000006  -0.003717  -0.000362
    26  C   -0.000030   0.000001   0.000005   0.000004   0.058668  -0.013586
    27  H    0.000015   0.000000   0.000000  -0.000018  -0.017333   0.003767
    28  O    0.000005   0.000000   0.000000  -0.000026  -0.018027  -0.002197
              13         14         15         16         17         18
     1  C   -0.002292  -0.000304   0.003464   0.019120   0.003948  -0.000578
     2  C   -0.000095   0.000000   0.000202   0.002193   0.002297  -0.000043
     3  C    0.000114   0.000002  -0.000303  -0.000184  -0.000321  -0.000014
     4  C   -0.001536   0.000083   0.000865   0.000570   0.000514   0.000138
     5  C    0.000376   0.001618  -0.010253  -0.012200   0.000327   0.000080
     6  C   -0.014760   0.010500   0.006049  -0.080238  -0.013451   0.014336
     7  H   -0.000004   0.000000   0.000008   0.000078   0.000057   0.000001
     8  H    0.000000   0.000000  -0.000001  -0.000011  -0.000002   0.000000
     9  H    0.000053  -0.000004  -0.000003   0.000015  -0.000002  -0.000002
    10  H    0.003198  -0.000030  -0.002039  -0.000317  -0.000046  -0.000084
    11  N   -0.032206  -0.044772  -0.041720   0.259001  -0.036620  -0.052148
    12  C    0.395749   0.410128   0.417568  -0.065724   0.011141  -0.003351
    13  H    0.626516  -0.041359  -0.037555  -0.013393  -0.000665  -0.003497
    14  H   -0.041359   0.542712  -0.012482  -0.001676   0.000406   0.004855
    15  H   -0.037555  -0.012482   0.523490   0.010262  -0.000319   0.000457
    16  C   -0.013393  -0.001676   0.010262   4.953873   0.418417   0.410375
    17  H   -0.000665   0.000406  -0.000319   0.418417   0.548626  -0.022557
    18  H   -0.003497   0.004855   0.000457   0.410375  -0.022557   0.569214
    19  H    0.016555  -0.003829  -0.000902   0.385359  -0.031531  -0.039741
    20  C    0.000507  -0.000835  -0.000581  -0.020087  -0.011583  -0.001006
    21  H   -0.000090   0.000085   0.000114   0.002550   0.004649   0.000186
    22  H    0.000008   0.000007  -0.000010   0.000297   0.000053  -0.000056
    23  C   -0.000505   0.005086  -0.002461   0.011675   0.001503   0.000739
    24  H    0.000011  -0.000078   0.000023  -0.000124  -0.000075  -0.000058
    25  H   -0.000032  -0.000167   0.000759  -0.000422   0.000042   0.000036
    26  C    0.003679  -0.009994  -0.002472  -0.012799  -0.001119  -0.004041
    27  H   -0.000492  -0.002409   0.001676  -0.008054   0.000068   0.003936
    28  O    0.000023   0.007986   0.003568   0.002270   0.000038   0.000103
              19         20         21         22         23         24
     1  C   -0.001866   0.305591  -0.047383  -0.070959  -0.028326   0.010409
     2  C   -0.000433  -0.059701   0.002828   0.009181  -0.013644   0.000972
     3  C    0.000025   0.015354  -0.001234   0.000702   0.002429  -0.000151
     4  C   -0.001634  -0.006573   0.000663   0.000293  -0.002016   0.000047
     5  C    0.002546   0.020330  -0.000435  -0.000976   0.007384  -0.000164
     6  C   -0.001009  -0.096228  -0.005175   0.008728  -0.013872   0.000335
     7  H   -0.000014  -0.015317   0.000779   0.007034   0.000064  -0.000043
     8  H    0.000001  -0.000377   0.000009  -0.000103   0.000036  -0.000002
     9  H    0.000037   0.000158  -0.000005  -0.000001  -0.000020   0.000000
    10  H    0.000846  -0.000180  -0.000011   0.000016   0.000029  -0.000001
    11  N   -0.034427   0.037894  -0.012603   0.001261  -0.024242   0.001601
    12  C   -0.010859  -0.004048   0.000506  -0.000063   0.004110  -0.000048
    13  H    0.016555   0.000507  -0.000090   0.000008  -0.000505   0.000011
    14  H   -0.003829  -0.000835   0.000085   0.000007   0.005086  -0.000078
    15  H   -0.000902  -0.000581   0.000114  -0.000010  -0.002461   0.000023
    16  C    0.385359  -0.020087   0.002550   0.000297   0.011675  -0.000124
    17  H   -0.031531  -0.011583   0.004649   0.000053   0.001503  -0.000075
    18  H   -0.039741  -0.001006   0.000186  -0.000056   0.000739  -0.000058
    19  H    0.613353   0.003095  -0.000589   0.000007  -0.001244   0.000021
    20  C    0.003095   5.092025   0.424892   0.409324   0.140012  -0.037561
    21  H   -0.000589   0.424892   0.607296  -0.028213  -0.059943   0.003254
    22  H    0.000007   0.409324  -0.028213   0.588160  -0.018228  -0.012778
    23  C   -0.001244   0.140012  -0.059943  -0.018228   5.641963   0.351164
    24  H    0.000021  -0.037561   0.003254  -0.012778   0.351164   0.610150
    25  H    0.000006  -0.016217   0.006684  -0.001408   0.313102  -0.017644
    26  C    0.002074   0.004986  -0.006005   0.003153   0.139999  -0.020591
    27  H   -0.000066   0.023403   0.009037  -0.001354  -0.234250   0.006566
    28  O   -0.000143   0.005028   0.000369  -0.000432  -0.133924   0.003015
              25         26         27         28
     1  C   -0.003121   0.004119   0.005100   0.004175
     2  C   -0.000614  -0.000578  -0.000252   0.000152
     3  C   -0.000677  -0.000092  -0.000060  -0.000044
     4  C    0.000518   0.000305   0.000138   0.000088
     5  C   -0.001222  -0.002601  -0.001028  -0.000449
     6  C    0.010432  -0.011824   0.004821  -0.000821
     7  H    0.000509  -0.000030   0.000015   0.000005
     8  H    0.000007   0.000001   0.000000   0.000000
     9  H   -0.000001   0.000005   0.000000   0.000000
    10  H   -0.000006   0.000004  -0.000018  -0.000026
    11  N   -0.003717   0.058668  -0.017333  -0.018027
    12  C   -0.000362  -0.013586   0.003767  -0.002197
    13  H   -0.000032   0.003679  -0.000492   0.000023
    14  H   -0.000167  -0.009994  -0.002409   0.007986
    15  H    0.000759  -0.002472   0.001676   0.003568
    16  C   -0.000422  -0.012799  -0.008054   0.002270
    17  H    0.000042  -0.001119   0.000068   0.000038
    18  H    0.000036  -0.004041   0.003936   0.000103
    19  H    0.000006   0.002074  -0.000066  -0.000143
    20  C   -0.016217   0.004986   0.023403   0.005028
    21  H    0.006684  -0.006005   0.009037   0.000369
    22  H   -0.001408   0.003153  -0.001354  -0.000432
    23  C    0.313102   0.139999  -0.234250  -0.133924
    24  H   -0.017644  -0.020591   0.006566   0.003015
    25  H    0.577289   0.004546   0.015145   0.016259
    26  C    0.004546   4.654414   0.438760   0.670164
    27  H    0.015145   0.438760   0.790348  -0.074940
    28  O    0.016259   0.670164  -0.074940   7.808849
 Mulliken charges:
               1
     1  C   -0.025717
     2  C   -0.146460
     3  C   -0.124643
     4  C   -0.092429
     5  C   -0.218363
     6  C    0.229257
     7  H    0.096676
     8  H    0.106122
     9  H    0.107383
    10  H    0.103244
    11  N   -0.186665
    12  C   -0.274100
    13  H    0.101690
    14  H    0.134470
    15  H    0.142597
    16  C   -0.260829
    17  H    0.126204
    18  H    0.122720
    19  H    0.104362
    20  C   -0.212307
    21  H    0.097786
    22  H    0.106357
    23  C   -0.086621
    24  H    0.101749
    25  H    0.100274
    26  C    0.100855
    27  H    0.037478
    28  O   -0.291090
 Sum of Mulliken charges =   0.00000
 Mulliken charges with hydrogens summed into heavy atoms:
               1
     1  C   -0.025717
     2  C   -0.049784
     3  C   -0.018521
     4  C    0.014954
     5  C   -0.115119
     6  C    0.229257
    11  N   -0.186665
    12  C    0.104657
    16  C    0.092457
    20  C   -0.008164
    23  C    0.115403
    26  C    0.138333
    28  O   -0.291090
 Electronic spatial extent (au):  <R**2>=           2358.0777
 Charge=              0.0000 electrons
 Dipole moment (field-independent basis, Debye):
    X=             -1.7017    Y=             -0.1375    Z=              2.2531  Tot=              2.8269
 Quadrupole moment (field-independent basis, Debye-Ang):
   XX=            -84.7467   YY=            -71.4802   ZZ=            -82.7600
   XY=             -0.1268   XZ=              8.9735   YZ=             -1.8090
 Traceless Quadrupole moment (field-independent basis, Debye-Ang):
   XX=             -5.0844   YY=              8.1821   ZZ=             -3.0977
   XY=             -0.1268   XZ=              8.9735   YZ=             -1.8090
 Octapole moment (field-independent basis, Debye-Ang**2):
  XXX=            -27.5874  YYY=             -4.0299  ZZZ=              4.3730  XYY=              6.5632
  XXY=             -2.4484  XXZ=             13.2296  XZZ=              1.3381  YZZ=              3.9804
  YYZ=             -1.8885  XYZ=              1.6314
 Hexadecapole moment (field-independent basis, Debye-Ang**3):
 XXXX=          -1830.3934 YYYY=           -970.7923 ZZZZ=           -426.4087 XXXY=              5.7981
 XXXZ=             92.4763 YYYX=             -7.5052 YYYZ=             -9.1052 ZZZX=              0.6071
 ZZZY=              1.1810 XXYY=           -436.1783 XXZZ=           -413.3223 YYZZ=           -238.8970
 XXYZ=            -11.4623 YYXZ=             -1.6021 ZZXY=              1.3611
 N-N= 8.093481158128D+02 E-N=-2.916976622545D+03  KE= 5.555220413120D+02
 Running external command "gaunbo6 R"
         input file       "/home/aloke/aloke/prakash/Gau-26281.EIn"
         output file      "/home/aloke/aloke/prakash/Gau-26281.EOu"
         message file     "/home/aloke/aloke/prakash/Gau-26281.EMs"
         fchk file        "/home/aloke/aloke/prakash/Gau-26281.EFC"
         mat. el file     "/home/aloke/aloke/prakash/Gau-26281.EUF"

 Writing Wrt12E file "/home/aloke/aloke/prakash/Gau-26281.EUF"
 Gaussian matrix elements                                         Version   1 NLab= 7 Len12L=8 Len4L=8
 Write GAUSSIAN SCALARS               from file   501 offset           0 to matrix element file.
 Write OVERLAP                        from file   514 offset           0 to matrix element file.
 Write CORE HAMILTONIAN ALPHA         from file   515 offset           0 to matrix element file.
 Write CORE HAMILTONIAN BETA          from file   515 offset      121771 to matrix element file.
 Write KINETIC ENERGY                 from file   516 offset           0 to matrix element file.
 Write ORTHOGONAL BASIS               from file   685 offset           0 to matrix element file.
 Write DIPOLE INTEGRALS               from file   518 offset           0 to matrix element file.
 Array DIP VEL INTEGRALS               on  file    572 does not exist.
 Array R X DEL INTEGRALS               on  file    572 does not exist.
 Write ALPHA ORBITAL ENERGIES         from file     0 offset           0 to matrix element file.
 Write ALPHA MO COEFFICIENTS          from file 10524 offset           0 to matrix element file.
 Write ALPHA DENSITY MATRIX           from file     0 offset           0 to matrix element file.
 Write ALPHA SCF DENSITY MATRIX       from file 10528 offset           0 to matrix element file.
 Write ALPHA FOCK MATRIX              from file 10536 offset           0 to matrix element file.
 No 2e integrals to process.
 Perform NBO analysis...

 *********************************** NBO 6.0 ***********************************
             N A T U R A L   A T O M I C   O R B I T A L   A N D
          N A T U R A L   B O N D   O R B I T A L   A N A L Y S I S
 ************************* Aloke Das Software (101058) *************************
  (c) Copyright 1996-2016 Board of Regents of the University of Wisconsin System
      on behalf of the Theoretical Chemistry Institute.  All rights reserved.

          Cite this program as:

          NBO 6.0.  E. D. Glendening, J. K. Badenhoop, A. E. Reed,
          J. E. Carpenter, J. A. Bohmann, C. M. Morales, C. R. Landis,
          and F. Weinhold (Theoretical Chemistry Institute, University
          of Wisconsin, Madison, WI, 2013); http://nbo6.chem.wisc.edu/

       /E2PERT / : Analyze NBO Fock matrix
                   Print threshold set to 0.1
       /AONBO  / : Checkpoint the AO to NBO transformation
                   NBOs sorted by occupancy

 Filename set to /home/aloke/aloke/prakash/Gau-26281

 Job title:  Energy Optimisation and Frequency calculation


 NATURAL POPULATIONS:  Natural atomic orbital occupancies

  NAO Atom No lang   Type(AO)    Occupancy      Energy
 -------------------------------------------------------
   1    C  1  s      Cor( 1s)     1.99999     -10.18575
   2    C  1  s      Val( 2s)     0.92210      -0.10322
   3    C  1  s      Ryd( 3s)     0.00079       1.41945
   4    C  1  s      Ryd( 4s)     0.00013       1.98864
   5    C  1  s      Ryd( 5s)     0.00000      19.54425
   6    C  1  px     Val( 2p)     1.04512      -0.02372
   7    C  1  px     Ryd( 3p)     0.00473       1.04668
   8    C  1  px     Ryd( 4p)     0.00032       2.19078
   9    C  1  py     Val( 2p)     1.04159      -0.01561
  10    C  1  py     Ryd( 3p)     0.00337       1.03662
  11    C  1  py     Ryd( 4p)     0.00023       2.11617
  12    C  1  pz     Val( 2p)     1.00399      -0.09561
  13    C  1  pz     Ryd( 3p)     0.00232       0.78591
  14    C  1  pz     Ryd( 4p)     0.00009       1.52238
  15    C  1  dxy    Ryd( 3d)     0.00085       2.71270
  16    C  1  dxy    Ryd( 4d)     0.00063       3.88847
  17    C  1  dxz    Ryd( 3d)     0.00044       2.06518
  18    C  1  dxz    Ryd( 4d)     0.00026       3.45780
  19    C  1  dyz    Ryd( 3d)     0.00039       2.03751
  20    C  1  dyz    Ryd( 4d)     0.00024       3.46000
  21    C  1  dx2y2  Ryd( 3d)     0.00105       2.69098
  22    C  1  dx2y2  Ryd( 4d)     0.00063       4.01428
  23    C  1  dz2    Ryd( 3d)     0.00080       2.84229
  24    C  1  dz2    Ryd( 4d)     0.00008       3.58295
  25    C  1  f(0)   Ryd( 4f)     0.00044       3.33409
  26    C  1  f(c1)  Ryd( 4f)     0.00032       3.36518
  27    C  1  f(s1)  Ryd( 4f)     0.00030       3.37792
  28    C  1  f(c2)  Ryd( 4f)     0.00010       3.42809
  29    C  1  f(s2)  Ryd( 4f)     0.00022       3.42524
  30    C  1  f(c3)  Ryd( 4f)     0.00017       3.77437
  31    C  1  f(s3)  Ryd( 4f)     0.00061       3.87548

  32    C  2  s      Cor( 1s)     1.99999     -10.17751
  33    C  2  s      Val( 2s)     0.97069      -0.12226
  34    C  2  s      Ryd( 3s)     0.00069       1.89457
  35    C  2  s      Ryd( 4s)     0.00005       2.38858
  36    C  2  s      Ryd( 5s)     0.00000      18.12629
  37    C  2  px     Val( 2p)     1.04316      -0.01933
  38    C  2  px     Ryd( 3p)     0.00257       0.93587
  39    C  2  px     Ryd( 4p)     0.00015       1.93751
  40    C  2  py     Val( 2p)     1.15353      -0.04693
  41    C  2  py     Ryd( 3p)     0.00428       1.17180
  42    C  2  py     Ryd( 4p)     0.00014       2.01336
  43    C  2  pz     Val( 2p)     1.01157      -0.09985
  44    C  2  pz     Ryd( 3p)     0.00155       0.75276
  45    C  2  pz     Ryd( 4p)     0.00018       1.34354
  46    C  2  dxy    Ryd( 3d)     0.00149       2.12226
  47    C  2  dxy    Ryd( 4d)     0.00025       3.80114
  48    C  2  dxz    Ryd( 3d)     0.00054       1.86165
  49    C  2  dxz    Ryd( 4d)     0.00014       3.32013
  50    C  2  dyz    Ryd( 3d)     0.00059       1.76836
  51    C  2  dyz    Ryd( 4d)     0.00008       3.00300
  52    C  2  dx2y2  Ryd( 3d)     0.00072       2.17201
  53    C  2  dx2y2  Ryd( 4d)     0.00070       3.86165
  54    C  2  dz2    Ryd( 3d)     0.00082       2.01564
  55    C  2  dz2    Ryd( 4d)     0.00005       3.24821
  56    C  2  f(0)   Ryd( 4f)     0.00037       3.30375
  57    C  2  f(c1)  Ryd( 4f)     0.00032       3.40431
  58    C  2  f(s1)  Ryd( 4f)     0.00028       3.27135
  59    C  2  f(c2)  Ryd( 4f)     0.00019       3.41869
  60    C  2  f(s2)  Ryd( 4f)     0.00022       3.39587
  61    C  2  f(c3)  Ryd( 4f)     0.00017       3.66502
  62    C  2  f(s3)  Ryd( 4f)     0.00050       3.85593

  63    C  3  s      Cor( 1s)     1.99999     -10.17565
  64    C  3  s      Val( 2s)     0.97525      -0.12637
  65    C  3  s      Ryd( 3s)     0.00069       1.57230
  66    C  3  s      Ryd( 4s)     0.00001       3.32041
  67    C  3  s      Ryd( 5s)     0.00000      19.19730
  68    C  3  px     Val( 2p)     1.13898      -0.04413
  69    C  3  px     Ryd( 3p)     0.00379       1.08282
  70    C  3  px     Ryd( 4p)     0.00016       1.98316
  71    C  3  py     Val( 2p)     1.06672      -0.02411
  72    C  3  py     Ryd( 3p)     0.00333       0.94705
  73    C  3  py     Ryd( 4p)     0.00014       1.83112
  74    C  3  pz     Val( 2p)     1.01387      -0.09718
  75    C  3  pz     Ryd( 3p)     0.00195       0.71163
  76    C  3  pz     Ryd( 4p)     0.00019       1.34208
  77    C  3  dxy    Ryd( 3d)     0.00099       2.09449
  78    C  3  dxy    Ryd( 4d)     0.00051       3.77694
  79    C  3  dxz    Ryd( 3d)     0.00061       1.85170
  80    C  3  dxz    Ryd( 4d)     0.00006       2.97614
  81    C  3  dyz    Ryd( 3d)     0.00043       1.83231
  82    C  3  dyz    Ryd( 4d)     0.00014       3.17450
  83    C  3  dx2y2  Ryd( 3d)     0.00106       2.11850
  84    C  3  dx2y2  Ryd( 4d)     0.00037       3.73419
  85    C  3  dz2    Ryd( 3d)     0.00083       1.95213
  86    C  3  dz2    Ryd( 4d)     0.00007       3.15003
  87    C  3  f(0)   Ryd( 4f)     0.00033       3.30836
  88    C  3  f(c1)  Ryd( 4f)     0.00031       3.30957
  89    C  3  f(s1)  Ryd( 4f)     0.00031       3.36976
  90    C  3  f(c2)  Ryd( 4f)     0.00020       3.39416
  91    C  3  f(s2)  Ryd( 4f)     0.00019       3.40668
  92    C  3  f(c3)  Ryd( 4f)     0.00015       3.60281
  93    C  3  f(s3)  Ryd( 4f)     0.00047       3.85794

  94    C  4  s      Cor( 1s)     1.99999     -10.17789
  95    C  4  s      Val( 2s)     0.97465      -0.12617
  96    C  4  s      Ryd( 3s)     0.00068       1.52857
  97    C  4  s      Ryd( 4s)     0.00002       2.85941
  98    C  4  s      Ryd( 5s)     0.00000      20.25408
  99    C  4  px     Val( 2p)     1.10663      -0.03693
 100    C  4  px     Ryd( 3p)     0.00377       1.03304
 101    C  4  px     Ryd( 4p)     0.00016       1.90514
 102    C  4  py     Val( 2p)     1.08015      -0.02808
 103    C  4  py     Ryd( 3p)     0.00366       0.98184
 104    C  4  py     Ryd( 4p)     0.00012       1.84173
 105    C  4  pz     Val( 2p)     1.02115      -0.10147
 106    C  4  pz     Ryd( 3p)     0.00186       0.75222
 107    C  4  pz     Ryd( 4p)     0.00017       1.35692
 108    C  4  dxy    Ryd( 3d)     0.00069       2.10465
 109    C  4  dxy    Ryd( 4d)     0.00064       3.82520
 110    C  4  dxz    Ryd( 3d)     0.00048       1.89456
 111    C  4  dxz    Ryd( 4d)     0.00015       3.00406
 112    C  4  dyz    Ryd( 3d)     0.00053       1.85230
 113    C  4  dyz    Ryd( 4d)     0.00014       3.03659
 114    C  4  dx2y2  Ryd( 3d)     0.00131       2.16017
 115    C  4  dx2y2  Ryd( 4d)     0.00024       3.71054
 116    C  4  dz2    Ryd( 3d)     0.00083       1.95485
 117    C  4  dz2    Ryd( 4d)     0.00003       3.10903
 118    C  4  f(0)   Ryd( 4f)     0.00043       3.33227
 119    C  4  f(c1)  Ryd( 4f)     0.00026       3.26988
 120    C  4  f(s1)  Ryd( 4f)     0.00026       3.32155
 121    C  4  f(c2)  Ryd( 4f)     0.00010       3.39288
 122    C  4  f(s2)  Ryd( 4f)     0.00026       3.46275
 123    C  4  f(c3)  Ryd( 4f)     0.00019       3.64493
 124    C  4  f(s3)  Ryd( 4f)     0.00047       3.83020

 125    C  5  s      Cor( 1s)     1.99999     -10.17675
 126    C  5  s      Val( 2s)     0.97446      -0.12324
 127    C  5  s      Ryd( 3s)     0.00102       1.64153
 128    C  5  s      Ryd( 4s)     0.00008       1.52690
 129    C  5  s      Ryd( 5s)     0.00000      20.81874
 130    C  5  px     Val( 2p)     1.05050      -0.02599
 131    C  5  px     Ryd( 3p)     0.00209       0.93366
 132    C  5  px     Ryd( 4p)     0.00018       1.92663
 133    C  5  py     Val( 2p)     1.15514      -0.04744
 134    C  5  py     Ryd( 3p)     0.00359       1.15397
 135    C  5  py     Ryd( 4p)     0.00030       1.89378
 136    C  5  pz     Val( 2p)     1.03560      -0.10148
 137    C  5  pz     Ryd( 3p)     0.00189       0.73583
 138    C  5  pz     Ryd( 4p)     0.00019       1.36482
 139    C  5  dxy    Ryd( 3d)     0.00178       2.11661
 140    C  5  dxy    Ryd( 4d)     0.00022       3.78721
 141    C  5  dxz    Ryd( 3d)     0.00056       1.84789
 142    C  5  dxz    Ryd( 4d)     0.00017       3.37813
 143    C  5  dyz    Ryd( 3d)     0.00059       1.83173
 144    C  5  dyz    Ryd( 4d)     0.00008       3.04529
 145    C  5  dx2y2  Ryd( 3d)     0.00060       2.20620
 146    C  5  dx2y2  Ryd( 4d)     0.00059       3.85002
 147    C  5  dz2    Ryd( 3d)     0.00094       1.98609
 148    C  5  dz2    Ryd( 4d)     0.00004       3.26498
 149    C  5  f(0)   Ryd( 4f)     0.00036       3.32803
 150    C  5  f(c1)  Ryd( 4f)     0.00036       3.38476
 151    C  5  f(s1)  Ryd( 4f)     0.00029       3.26981
 152    C  5  f(c2)  Ryd( 4f)     0.00020       3.42954
 153    C  5  f(s2)  Ryd( 4f)     0.00020       3.41319
 154    C  5  f(c3)  Ryd( 4f)     0.00018       3.66225
 155    C  5  f(s3)  Ryd( 4f)     0.00049       3.84568

 156    C  6  s      Cor( 1s)     1.99999     -10.21033
 157    C  6  s      Val( 2s)     0.87460      -0.08945
 158    C  6  s      Ryd( 3s)     0.00114       1.25876
 159    C  6  s      Ryd( 4s)     0.00017       1.83519
 160    C  6  s      Ryd( 5s)     0.00000      20.55405
 161    C  6  px     Val( 2p)     0.91888      -0.00484
 162    C  6  px     Ryd( 3p)     0.00426       1.08876
 163    C  6  px     Ryd( 4p)     0.00055       1.94715
 164    C  6  py     Val( 2p)     1.02943      -0.01932
 165    C  6  py     Ryd( 3p)     0.00366       0.95197
 166    C  6  py     Ryd( 4p)     0.00041       2.04757
 167    C  6  pz     Val( 2p)     1.01018      -0.09849
 168    C  6  pz     Ryd( 3p)     0.00320       0.75729
 169    C  6  pz     Ryd( 4p)     0.00018       1.59492
 170    C  6  dxy    Ryd( 4d)     0.00071       3.34041
 171    C  6  dxy    Ryd( 3d)     0.00091       3.90140
 172    C  6  dxz    Ryd( 3d)     0.00051       2.57716
 173    C  6  dxz    Ryd( 4d)     0.00028       3.23584
 174    C  6  dyz    Ryd( 3d)     0.00043       2.25619
 175    C  6  dyz    Ryd( 4d)     0.00024       3.18963
 176    C  6  dx2y2  Ryd( 3d)     0.00105       3.10745
 177    C  6  dx2y2  Ryd( 4d)     0.00086       3.90434
 178    C  6  dz2    Ryd( 3d)     0.00052       3.04041
 179    C  6  dz2    Ryd( 4d)     0.00016       3.21456
 180    C  6  f(0)   Ryd( 4f)     0.00033       3.42666
 181    C  6  f(c1)  Ryd( 4f)     0.00024       3.41602
 182    C  6  f(s1)  Ryd( 4f)     0.00025       3.40585
 183    C  6  f(c2)  Ryd( 4f)     0.00016       3.49642
 184    C  6  f(s2)  Ryd( 4f)     0.00023       3.52427
 185    C  6  f(c3)  Ryd( 4f)     0.00013       3.81289
 186    C  6  f(s3)  Ryd( 4f)     0.00049       3.85371

 187    H  7  s      Val( 1s)     0.79454       0.04348
 188    H  7  s      Ryd( 2s)     0.00055       0.77534
 189    H  7  s      Ryd( 3s)     0.00009       1.90302
 190    H  7  px     Ryd( 2p)     0.00008       2.52616
 191    H  7  py     Ryd( 2p)     0.00080       2.80361
 192    H  7  pz     Ryd( 2p)     0.00016       2.18156

 193    H  8  s      Val( 1s)     0.78865       0.04811
 194    H  8  s      Ryd( 2s)     0.00032       0.63293
 195    H  8  s      Ryd( 3s)     0.00009       2.03502
 196    H  8  px     Ryd( 2p)     0.00063       2.74736
 197    H  8  py     Ryd( 2p)     0.00018       2.57775
 198    H  8  pz     Ryd( 2p)     0.00014       2.18975

 199    H  9  s      Val( 1s)     0.78915       0.04724
 200    H  9  s      Ryd( 2s)     0.00038       0.63779
 201    H  9  s      Ryd( 3s)     0.00009       2.01306
 202    H  9  px     Ryd( 2p)     0.00044       2.69326
 203    H  9  py     Ryd( 2p)     0.00026       2.61569
 204    H  9  pz     Ryd( 2p)     0.00021       2.24259

 205    H 10  s      Val( 1s)     0.78760       0.04658
 206    H 10  s      Ryd( 2s)     0.00097       0.71173
 207    H 10  s      Ryd( 3s)     0.00009       1.95256
 208    H 10  px     Ryd( 2p)     0.00009       2.53467
 209    H 10  py     Ryd( 2p)     0.00079       2.83179
 210    H 10  pz     Ryd( 2p)     0.00018       2.20652

 211    N 11  s      Cor( 1s)     1.99999     -14.32884
 212    N 11  s      Val( 2s)     1.25244      -0.41576
 213    N 11  s      Ryd( 3s)     0.00133       1.31484
 214    N 11  s      Ryd( 4s)     0.00004       6.12310
 215    N 11  s      Ryd( 5s)     0.00000      25.33966
 216    N 11  px     Val( 2p)     1.42150      -0.19410
 217    N 11  px     Ryd( 3p)     0.00523       0.76502
 218    N 11  px     Ryd( 4p)     0.00016       3.04740
 219    N 11  py     Val( 2p)     1.51402      -0.20763
 220    N 11  py     Ryd( 3p)     0.00762       0.88038
 221    N 11  py     Ryd( 4p)     0.00013       2.87412
 222    N 11  pz     Val( 2p)     1.21634      -0.18076
 223    N 11  pz     Ryd( 3p)     0.00280       0.80091
 224    N 11  pz     Ryd( 4p)     0.00011       2.95338
 225    N 11  dxy    Ryd( 3d)     0.00153       2.74637
 226    N 11  dxy    Ryd( 4d)     0.00013       5.29287
 227    N 11  dxz    Ryd( 3d)     0.00028       1.95635
 228    N 11  dxz    Ryd( 4d)     0.00022       4.96114
 229    N 11  dyz    Ryd( 3d)     0.00198       2.05587
 230    N 11  dyz    Ryd( 4d)     0.00011       5.06550
 231    N 11  dx2y2  Ryd( 3d)     0.00219       2.06514
 232    N 11  dx2y2  Ryd( 4d)     0.00012       5.04627
 233    N 11  dz2    Ryd( 3d)     0.00173       2.20092
 234    N 11  dz2    Ryd( 4d)     0.00012       5.17704
 235    N 11  f(0)   Ryd( 4f)     0.00012       4.83832
 236    N 11  f(c1)  Ryd( 4f)     0.00007       4.78741
 237    N 11  f(s1)  Ryd( 4f)     0.00013       4.84464
 238    N 11  f(c2)  Ryd( 4f)     0.00002       4.67922
 239    N 11  f(s2)  Ryd( 4f)     0.00012       4.64079
 240    N 11  f(c3)  Ryd( 4f)     0.00016       4.77370
 241    N 11  f(s3)  Ryd( 4f)     0.00014       4.64403

 242    C 12  s      Cor( 1s)     1.99999     -10.19125
 243    C 12  s      Val( 2s)     1.08367      -0.20786
 244    C 12  s      Ryd( 3s)     0.00092       1.34314
 245    C 12  s      Ryd( 4s)     0.00002       1.93747
 246    C 12  s      Ryd( 5s)     0.00000      21.80978
 247    C 12  px     Val( 2p)     1.17788      -0.10423
 248    C 12  px     Ryd( 3p)     0.00197       0.73372
 249    C 12  px     Ryd( 4p)     0.00016       1.61743
 250    C 12  py     Val( 2p)     1.05082      -0.08045
 251    C 12  py     Ryd( 3p)     0.00147       0.71005
 252    C 12  py     Ryd( 4p)     0.00037       1.58822
 253    C 12  pz     Val( 2p)     1.07720      -0.09013
 254    C 12  pz     Ryd( 3p)     0.00206       0.64059
 255    C 12  pz     Ryd( 4p)     0.00006       1.54785
 256    C 12  dxy    Ryd( 3d)     0.00091       2.13834
 257    C 12  dxy    Ryd( 4d)     0.00009       2.80509
 258    C 12  dxz    Ryd( 3d)     0.00060       2.05008
 259    C 12  dxz    Ryd( 4d)     0.00007       2.62588
 260    C 12  dyz    Ryd( 3d)     0.00083       2.65999
 261    C 12  dyz    Ryd( 4d)     0.00010       2.89974
 262    C 12  dx2y2  Ryd( 3d)     0.00132       2.10972
 263    C 12  dx2y2  Ryd( 4d)     0.00005       2.92574
 264    C 12  dz2    Ryd( 3d)     0.00118       2.01115
 265    C 12  dz2    Ryd( 4d)     0.00011       3.08286
 266    C 12  f(0)   Ryd( 4f)     0.00015       3.50927
 267    C 12  f(c1)  Ryd( 4f)     0.00007       3.48483
 268    C 12  f(s1)  Ryd( 4f)     0.00028       3.72316
 269    C 12  f(c2)  Ryd( 4f)     0.00002       3.41262
 270    C 12  f(s2)  Ryd( 4f)     0.00003       3.40783
 271    C 12  f(c3)  Ryd( 4f)     0.00032       3.75865
 272    C 12  f(s3)  Ryd( 4f)     0.00002       3.31318

 273    H 13  s      Val( 1s)     0.83284       0.01440
 274    H 13  s      Ryd( 2s)     0.00245       0.58602
 275    H 13  s      Ryd( 3s)     0.00005       2.02302
 276    H 13  px     Ryd( 2p)     0.00021       2.27377
 277    H 13  py     Ryd( 2p)     0.00067       2.73416
 278    H 13  pz     Ryd( 2p)     0.00009       2.17182

 279    H 14  s      Val( 1s)     0.78965       0.03932
 280    H 14  s      Ryd( 2s)     0.00091       0.63779
 281    H 14  s      Ryd( 3s)     0.00005       1.95065
 282    H 14  px     Ryd( 2p)     0.00085       2.78028
 283    H 14  py     Ryd( 2p)     0.00008       2.21160
 284    H 14  pz     Ryd( 2p)     0.00009       2.18067

 285    H 15  s      Val( 1s)     0.78381       0.04280
 286    H 15  s      Ryd( 2s)     0.00058       0.52078
 287    H 15  s      Ryd( 3s)     0.00005       2.07788
 288    H 15  px     Ryd( 2p)     0.00008       2.17080
 289    H 15  py     Ryd( 2p)     0.00015       2.25349
 290    H 15  pz     Ryd( 2p)     0.00072       2.81692

 291    C 16  s      Cor( 1s)     1.99999     -10.20157
 292    C 16  s      Val( 2s)     1.08533      -0.21850
 293    C 16  s      Ryd( 3s)     0.00095       1.26850
 294    C 16  s      Ryd( 4s)     0.00004       2.21650
 295    C 16  s      Ryd( 5s)     0.00000      21.42867
 296    C 16  px     Val( 2p)     1.19391      -0.11368
 297    C 16  px     Ryd( 3p)     0.00158       0.73841
 298    C 16  px     Ryd( 4p)     0.00016       1.52395
 299    C 16  py     Val( 2p)     1.17578      -0.11013
 300    C 16  py     Ryd( 3p)     0.00185       0.68932
 301    C 16  py     Ryd( 4p)     0.00021       1.51554
 302    C 16  pz     Val( 2p)     0.92554      -0.07815
 303    C 16  pz     Ryd( 3p)     0.00114       0.64648
 304    C 16  pz     Ryd( 4p)     0.00019       1.50948
 305    C 16  dxy    Ryd( 3d)     0.00101       1.99740
 306    C 16  dxy    Ryd( 4d)     0.00006       2.76431
 307    C 16  dxz    Ryd( 3d)     0.00058       2.05301
 308    C 16  dxz    Ryd( 4d)     0.00006       2.65513
 309    C 16  dyz    Ryd( 3d)     0.00124       2.23488
 310    C 16  dyz    Ryd( 4d)     0.00008       2.93261
 311    C 16  dx2y2  Ryd( 3d)     0.00119       2.02587
 312    C 16  dx2y2  Ryd( 4d)     0.00003       2.80369
 313    C 16  dz2    Ryd( 3d)     0.00087       2.76916
 314    C 16  dz2    Ryd( 4d)     0.00012       3.08356
 315    C 16  f(0)   Ryd( 4f)     0.00025       3.62056
 316    C 16  f(c1)  Ryd( 4f)     0.00007       3.57459
 317    C 16  f(s1)  Ryd( 4f)     0.00022       3.59029
 318    C 16  f(c2)  Ryd( 4f)     0.00003       3.44237
 319    C 16  f(s2)  Ryd( 4f)     0.00002       3.46936
 320    C 16  f(c3)  Ryd( 4f)     0.00030       3.58489
 321    C 16  f(s3)  Ryd( 4f)     0.00004       3.21106

 322    H 17  s      Val( 1s)     0.79910       0.02479
 323    H 17  s      Ryd( 2s)     0.00055       0.71179
 324    H 17  s      Ryd( 3s)     0.00004       1.91731
 325    H 17  px     Ryd( 2p)     0.00014       2.19765
 326    H 17  py     Ryd( 2p)     0.00041       2.47357
 327    H 17  pz     Ryd( 2p)     0.00038       2.60128

 328    H 18  s      Val( 1s)     0.80356       0.02075
 329    H 18  s      Ryd( 2s)     0.00091       0.71116
 330    H 18  s      Ryd( 3s)     0.00004       1.83628
 331    H 18  px     Ryd( 2p)     0.00085       2.71105
 332    H 18  py     Ryd( 2p)     0.00008       2.13654
 333    H 18  pz     Ryd( 2p)     0.00012       2.25080

 334    H 19  s      Val( 1s)     0.82498       0.01285
 335    H 19  s      Ryd( 2s)     0.00305       0.53642
 336    H 19  s      Ryd( 3s)     0.00003       2.03695
 337    H 19  px     Ryd( 2p)     0.00023       2.29487
 338    H 19  py     Ryd( 2p)     0.00051       2.59495
 339    H 19  pz     Ryd( 2p)     0.00014       2.26795

 340    C 20  s      Cor( 1s)     1.99999     -10.18626
 341    C 20  s      Val( 2s)     1.04428      -0.19757
 342    C 20  s      Ryd( 3s)     0.00068       1.60690
 343    C 20  s      Ryd( 4s)     0.00002       2.45186
 344    C 20  s      Ryd( 5s)     0.00000      20.69221
 345    C 20  px     Val( 2p)     1.06201      -0.07687
 346    C 20  px     Ryd( 3p)     0.00242       0.85688
 347    C 20  px     Ryd( 4p)     0.00017       1.66542
 348    C 20  py     Val( 2p)     1.15901      -0.09602
 349    C 20  py     Ryd( 3p)     0.00233       0.96034
 350    C 20  py     Ryd( 4p)     0.00022       1.68330
 351    C 20  pz     Val( 2p)     1.11908      -0.09315
 352    C 20  pz     Ryd( 3p)     0.00082       0.74619
 353    C 20  pz     Ryd( 4p)     0.00019       1.50493
 354    C 20  dxy    Ryd( 3d)     0.00120       2.34585
 355    C 20  dxy    Ryd( 4d)     0.00014       3.54843
 356    C 20  dxz    Ryd( 3d)     0.00120       2.23713
 357    C 20  dxz    Ryd( 4d)     0.00010       3.63705
 358    C 20  dyz    Ryd( 3d)     0.00052       1.92986
 359    C 20  dyz    Ryd( 4d)     0.00014       3.06497
 360    C 20  dx2y2  Ryd( 3d)     0.00049       2.16899
 361    C 20  dx2y2  Ryd( 4d)     0.00027       3.30716
 362    C 20  dz2    Ryd( 3d)     0.00071       1.99725
 363    C 20  dz2    Ryd( 4d)     0.00018       3.27961
 364    C 20  f(0)   Ryd( 4f)     0.00003       3.48259
 365    C 20  f(c1)  Ryd( 4f)     0.00026       3.70919
 366    C 20  f(s1)  Ryd( 4f)     0.00005       3.48802
 367    C 20  f(c2)  Ryd( 4f)     0.00014       3.46632
 368    C 20  f(s2)  Ryd( 4f)     0.00019       3.63513
 369    C 20  f(c3)  Ryd( 4f)     0.00015       3.73968
 370    C 20  f(s3)  Ryd( 4f)     0.00012       3.50069

 371    H 21  s      Val( 1s)     0.79324       0.02453
 372    H 21  s      Ryd( 2s)     0.00166       0.66946
 373    H 21  s      Ryd( 3s)     0.00005       2.05517
 374    H 21  px     Ryd( 2p)     0.00024       2.48182
 375    H 21  py     Ryd( 2p)     0.00018       2.33837
 376    H 21  pz     Ryd( 2p)     0.00069       2.80429

 377    H 22  s      Val( 1s)     0.78792       0.03151
 378    H 22  s      Ryd( 2s)     0.00061       0.78537
 379    H 22  s      Ryd( 3s)     0.00003       1.86660
 380    H 22  px     Ryd( 2p)     0.00020       2.45631
 381    H 22  py     Ryd( 2p)     0.00075       2.77173
 382    H 22  pz     Ryd( 2p)     0.00014       2.33937

 383    C 23  s      Cor( 1s)     1.99999     -10.17972
 384    C 23  s      Val( 2s)     1.09222      -0.22178
 385    C 23  s      Ryd( 3s)     0.00133       1.09760
 386    C 23  s      Ryd( 4s)     0.00004       5.39974
 387    C 23  s      Ryd( 5s)     0.00002      17.34614
 388    C 23  px     Val( 2p)     1.08869      -0.09110
 389    C 23  px     Ryd( 3p)     0.00143       0.80631
 390    C 23  px     Ryd( 4p)     0.00011       1.53620
 391    C 23  py     Val( 2p)     1.14180      -0.10400
 392    C 23  py     Ryd( 3p)     0.00093       0.75416
 393    C 23  py     Ryd( 4p)     0.00029       1.62225
 394    C 23  pz     Val( 2p)     1.15263      -0.09386
 395    C 23  pz     Ryd( 3p)     0.00198       0.89401
 396    C 23  pz     Ryd( 4p)     0.00012       1.49226
 397    C 23  dxy    Ryd( 3d)     0.00188       1.90626
 398    C 23  dxy    Ryd( 4d)     0.00011       3.78820
 399    C 23  dxz    Ryd( 3d)     0.00131       2.01571
 400    C 23  dxz    Ryd( 4d)     0.00008       3.62318
 401    C 23  dyz    Ryd( 3d)     0.00039       1.67681
 402    C 23  dyz    Ryd( 4d)     0.00013       3.10612
 403    C 23  dx2y2  Ryd( 3d)     0.00028       1.67761
 404    C 23  dx2y2  Ryd( 4d)     0.00012       3.14000
 405    C 23  dz2    Ryd( 3d)     0.00163       1.80624
 406    C 23  dz2    Ryd( 4d)     0.00019       3.49391
 407    C 23  f(0)   Ryd( 4f)     0.00013       3.50855
 408    C 23  f(c1)  Ryd( 4f)     0.00052       3.68516
 409    C 23  f(s1)  Ryd( 4f)     0.00005       3.38605
 410    C 23  f(c2)  Ryd( 4f)     0.00005       3.33541
 411    C 23  f(s2)  Ryd( 4f)     0.00007       3.49335
 412    C 23  f(c3)  Ryd( 4f)     0.00031       3.67728
 413    C 23  f(s3)  Ryd( 4f)     0.00005       3.42430

 414    H 24  s      Val( 1s)     0.77301       0.01272
 415    H 24  s      Ryd( 2s)     0.00053       0.74268
 416    H 24  s      Ryd( 3s)     0.00003       1.87636
 417    H 24  px     Ryd( 2p)     0.00029       2.49418
 418    H 24  py     Ryd( 2p)     0.00065       2.72492
 419    H 24  pz     Ryd( 2p)     0.00011       2.28839

 420    H 25  s      Val( 1s)     0.77570       0.03442
 421    H 25  s      Ryd( 2s)     0.00160       0.55064
 422    H 25  s      Ryd( 3s)     0.00003       2.08886
 423    H 25  px     Ryd( 2p)     0.00017       2.42078
 424    H 25  py     Ryd( 2p)     0.00008       2.29042
 425    H 25  pz     Ryd( 2p)     0.00075       2.75253

 426    C 26  s      Cor( 1s)     1.99999     -10.25128
 427    C 26  s      Val( 2s)     0.95457      -0.16572
 428    C 26  s      Ryd( 3s)     0.01030       1.23374
 429    C 26  s      Ryd( 4s)     0.00008       1.79063
 430    C 26  s      Ryd( 5s)     0.00001      22.17812
 431    C 26  px     Val( 2p)     0.81882      -0.06349
 432    C 26  px     Ryd( 3p)     0.00374       1.00570
 433    C 26  px     Ryd( 4p)     0.00020       1.25365
 434    C 26  py     Val( 2p)     0.80945      -0.06052
 435    C 26  py     Ryd( 3p)     0.00328       1.00980
 436    C 26  py     Ryd( 4p)     0.00020       1.12471
 437    C 26  pz     Val( 2p)     0.93241      -0.00936
 438    C 26  pz     Ryd( 3p)     0.00866       1.20299
 439    C 26  pz     Ryd( 4p)     0.00026       1.19457
 440    C 26  dxy    Ryd( 3d)     0.00088       3.02449
 441    C 26  dxy    Ryd( 4d)     0.00023       2.42977
 442    C 26  dxz    Ryd( 3d)     0.00095       2.88713
 443    C 26  dxz    Ryd( 4d)     0.00031       2.25444
 444    C 26  dyz    Ryd( 3d)     0.00079       2.84317
 445    C 26  dyz    Ryd( 4d)     0.00032       2.29925
 446    C 26  dx2y2  Ryd( 3d)     0.00049       2.64396
 447    C 26  dx2y2  Ryd( 4d)     0.00004       2.07959
 448    C 26  dz2    Ryd( 3d)     0.00170       3.03520
 449    C 26  dz2    Ryd( 4d)     0.00047       2.41619
 450    C 26  f(0)   Ryd( 4f)     0.00013       3.56600
 451    C 26  f(c1)  Ryd( 4f)     0.00027       3.55032
 452    C 26  f(s1)  Ryd( 4f)     0.00024       3.51242
 453    C 26  f(c2)  Ryd( 4f)     0.00001       3.28820
 454    C 26  f(s2)  Ryd( 4f)     0.00008       3.50800
 455    C 26  f(c3)  Ryd( 4f)     0.00018       3.29212
 456    C 26  f(s3)  Ryd( 4f)     0.00014       3.34637

 457    H 27  s      Val( 1s)     0.90431      -0.01785
 458    H 27  s      Ryd( 2s)     0.00351       0.49959
 459    H 27  s      Ryd( 3s)     0.00015       2.22219
 460    H 27  px     Ryd( 2p)     0.00027       2.30615
 461    H 27  py     Ryd( 2p)     0.00022       2.25012
 462    H 27  pz     Ryd( 2p)     0.00085       2.72443

 463    O 28  s      Cor( 1s)     1.99999     -19.10844
 464    O 28  s      Val( 2s)     1.69866      -0.66780
 465    O 28  s      Ryd( 3s)     0.00052       1.65225
 466    O 28  s      Ryd( 4s)     0.00002       4.61020
 467    O 28  s      Ryd( 5s)     0.00000      41.66330
 468    O 28  px     Val( 2p)     1.59199      -0.25236
 469    O 28  px     Ryd( 3p)     0.00192       0.66444
 470    O 28  px     Ryd( 4p)     0.00005       3.16857
 471    O 28  py     Val( 2p)     1.57021      -0.25071
 472    O 28  py     Ryd( 3p)     0.00184       0.70768
 473    O 28  py     Ryd( 4p)     0.00003       3.19693
 474    O 28  pz     Val( 2p)     1.66180      -0.26846
 475    O 28  pz     Ryd( 3p)     0.00183       0.63634
 476    O 28  pz     Ryd( 4p)     0.00015       3.45336
 477    O 28  dxy    Ryd( 3d)     0.00151       1.74248
 478    O 28  dxy    Ryd( 4d)     0.00001       6.49604
 479    O 28  dxz    Ryd( 3d)     0.00532       1.93534
 480    O 28  dxz    Ryd( 4d)     0.00001       6.58788
 481    O 28  dyz    Ryd( 3d)     0.00501       1.91685
 482    O 28  dyz    Ryd( 4d)     0.00001       6.55235
 483    O 28  dx2y2  Ryd( 3d)     0.00142       1.69345
 484    O 28  dx2y2  Ryd( 4d)     0.00000       6.38029
 485    O 28  dz2    Ryd( 3d)     0.00538       2.06121
 486    O 28  dz2    Ryd( 4d)     0.00004       6.69849
 487    O 28  f(0)   Ryd( 4f)     0.00012       5.93671
 488    O 28  f(c1)  Ryd( 4f)     0.00010       5.84991
 489    O 28  f(s1)  Ryd( 4f)     0.00009       5.80722
 490    O 28  f(c2)  Ryd( 4f)     0.00011       5.62789
 491    O 28  f(s2)  Ryd( 4f)     0.00009       5.69912
 492    O 28  f(c3)  Ryd( 4f)     0.00001       5.33241
 493    O 28  f(s3)  Ryd( 4f)     0.00000       5.33486

     Population inversion found on atom  C  5
     Population inversion found on atom  C  6
     Population inversion found on atom  C 26


 Summary of Natural Population Analysis:

                                     Natural Population
             Natural    ---------------------------------------------
  Atom No    Charge        Core      Valence    Rydberg      Total
 --------------------------------------------------------------------
    C  1   -0.03227      1.99999     4.01280    0.01949     6.03227
    C  2   -0.19596      1.99999     4.17895    0.01703     6.19596
    C  3   -0.21210      1.99999     4.19482    0.01729     6.21210
    C  4   -0.20001      1.99999     4.18259    0.01743     6.20001
    C  5   -0.23269      1.99999     4.21571    0.01700     6.23269
    C  6    0.14584      1.99999     3.83309    0.02108     5.85416
    H  7    0.20377      0.00000     0.79454    0.00169     0.79623
    H  8    0.21000      0.00000     0.78865    0.00136     0.79000
    H  9    0.20947      0.00000     0.78915    0.00137     0.79053
    H 10    0.21028      0.00000     0.78760    0.00211     0.78972
    N 11   -0.43089      1.99999     5.40430    0.02660     7.43089
    C 12   -0.40274      1.99999     4.38957    0.01319     6.40274
    H 13    0.16369      0.00000     0.83284    0.00347     0.83631
    H 14    0.20837      0.00000     0.78965    0.00198     0.79163
    H 15    0.21461      0.00000     0.78381    0.00159     0.78539
    C 16   -0.39284      1.99999     4.38055    0.01231     6.39284
    H 17    0.19939      0.00000     0.79910    0.00151     0.80061
    H 18    0.19444      0.00000     0.80356    0.00200     0.80556
    H 19    0.17105      0.00000     0.82498    0.00397     0.82895
    C 20   -0.39710      1.99999     4.38438    0.01273     6.39710
    H 21    0.20395      0.00000     0.79324    0.00281     0.79605
    H 22    0.21035      0.00000     0.78792    0.00173     0.78965
    C 23   -0.48888      1.99999     4.47534    0.01355     6.48888
    H 24    0.22537      0.00000     0.77301    0.00161     0.77463
    H 25    0.22168      0.00000     0.77570    0.00262     0.77832
    C 26    0.45078      1.99999     3.51526    0.03397     5.54922
    H 27    0.09069      0.00000     0.90431    0.00500     0.90931
    O 28   -0.54824      1.99999     6.52265    0.02559     8.54824
 ====================================================================
 * Total *  0.00000     25.99986    69.71807    0.28208    96.00000

                                 Natural Population
 ---------------------------------------------------------
   Core                      25.99986 ( 99.9994% of   26)
   Valence                   69.71807 ( 99.5972% of   70)
   Natural Minimal Basis     95.71792 ( 99.7062% of   96)
   Natural Rydberg Basis      0.28208 (  0.2938% of   96)
 ---------------------------------------------------------

    Atom No         Natural Electron Configuration
 ----------------------------------------------------------------------------
      C  1      [core]2s( 0.92)2p( 3.09)3p( 0.01)
      C  2      [core]2s( 0.97)2p( 3.21)3p( 0.01)
      C  3      [core]2s( 0.98)2p( 3.22)3p( 0.01)
      C  4      [core]2s( 0.97)2p( 3.21)3p( 0.01)
      C  5      [core]2s( 0.97)2p( 3.24)3p( 0.01)
      C  6      [core]2s( 0.87)2p( 2.96)3p( 0.01)
      H  7            1s( 0.79)
      H  8            1s( 0.79)
      H  9            1s( 0.79)
      H 10            1s( 0.79)
      N 11      [core]2s( 1.25)2p( 4.15)3p( 0.02)3d( 0.01)
      C 12      [core]2s( 1.08)2p( 3.31)3p( 0.01)
      H 13            1s( 0.83)
      H 14            1s( 0.79)
      H 15            1s( 0.78)
      C 16      [core]2s( 1.09)2p( 3.30)
      H 17            1s( 0.80)
      H 18            1s( 0.80)
      H 19            1s( 0.82)
      C 20      [core]2s( 1.04)2p( 3.34)3p( 0.01)
      H 21            1s( 0.79)
      H 22            1s( 0.79)
      C 23      [core]2s( 1.09)2p( 3.38)3d( 0.01)
      H 24            1s( 0.77)
      H 25            1s( 0.78)
      C 26      [core]2s( 0.95)2p( 2.56)3s( 0.01)3p( 0.02)
      H 27            1s( 0.90)
      O 28      [core]2s( 1.70)2p( 4.82)3p( 0.01)3d( 0.02)


 NATURAL BOND ORBITAL ANALYSIS:

                            Occupancies       Lewis Structure    Low   High
         Max    Occ     -------------------  -----------------   occ   occ
  Cycle  Ctr   Thresh    Lewis   non-Lewis     CR  BD  nC  LP    (L)   (NL)
 ============================================================================
    1     2     1.90    89.55967   6.44033     13  26   0   9     8      7
    2     2     1.89    90.38352   5.61648     13  27   0   8     7      6
    3     2     1.87    90.36002   5.63998     13  27   0   8     7      6
    4     2     1.86    92.16423   3.83577     13  30   0   5     3      3
    5     2     1.85    92.16423   3.83577     13  30   0   5     3      3
    6     2     1.81    92.15905   3.84095     13  29   0   6     3      3
    7     2     1.67    92.82101   3.17899     13  30   0   5     2      3
    8     2     1.66    94.12234   1.87766     13  32   0   3     0      3
    9     2     1.62    94.12234   1.87766     13  32   0   3     0      3
   10     2     1.41    94.12234   1.87766     13  32   0   3     0      3
   11     2     1.66    94.12234   1.87766     13  32   0   3     0      3
 ----------------------------------------------------------------------------

 Structure accepted: No low occupancy Lewis orbitals

 -------------------------------------------------------
   Core                     25.99986 ( 99.999% of  26)
   Valence Lewis            68.12248 ( 97.318% of  70)
  ==================      =============================
   Total Lewis              94.12234 ( 98.044% of  96)
  -----------------------------------------------------
   Valence non-Lewis         1.72100 (  1.793% of  96)
   Rydberg non-Lewis         0.15666 (  0.163% of  96)
  ==================      =============================
[...]
  146.  0.00042     3.03515  217.   RY ( 7) C  6
  147.  0.00039     1.60389  470.   RY ( 3) O 28
  148.  0.00038     0.63334  247.   RY ( 1) H  9
  149.  0.00037     3.24871   86.   RY ( 6) C  1
  150.  0.00037     2.11766  189.   RY ( 5) C  5
  151.  0.00037     3.24895  137.   RY ( 5) C  3
  152.  0.00037     3.23244  163.   RY ( 5) C  4
  153.  0.00036     3.01006  111.   RY ( 5) C  2
  154.  0.00034     2.76502  261.   RY ( 5) N 11
  155.  0.00034     3.04153  112.   RY ( 6) C  2
  156.  0.00033     3.00873  218.   RY ( 8) C  6
  157.  0.00033     3.12937  164.   RY ( 6) C  4
  158.  0.00033     2.92986  190.   RY ( 6) C  5
  159.  0.00032     3.26675   87.   RY ( 7) C  1
  160.  0.00032     0.62350  242.   RY ( 1) H  8
  161.  0.00032     2.08029  286.   RY ( 4) C 12
  162.  0.00031     3.02973  138.   RY ( 6) C  3
  163.  0.00030     3.83032  262.   RY ( 6) N 11
  164.  0.00026     1.97211  327.   RY ( 4) C 16
  165.  0.00026     2.19902  369.   RY ( 5) C 20
  166.  0.00026     1.58143  405.   RY ( 5) C 23
  167.  0.00024     3.19865  191.   RY ( 7) C  5
  168.  0.00024     2.69814   88.   RY ( 8) C  1
  169.  0.00024     1.30179  406.   RY ( 6) C 23
  170.  0.00023     1.48323  442.   RY ( 6) C 26
  171.  0.00023     2.44451  219.   RY ( 9) C  6
  172.  0.00023     1.92584  370.   RY ( 6) C 20
  173.  0.00020     1.34388  287.   RY ( 5) C 12
  174.  0.00019     2.75526   89.   RY ( 9) C  1
  175.  0.00019     2.20702  464.   RY ( 2) H 27
  176.  0.00019     3.26152  407.   RY ( 7) C 23
  177.  0.00018     2.95330  263.   RY ( 7) N 11
  178.  0.00015     1.38696  288.   RY ( 6) C 12
  179.  0.00015     2.49357  443.   RY ( 7) C 26
  180.  0.00015     2.48229  220.   RY (10) C  6
  181.  0.00015     2.02620  408.   RY ( 8) C 23
  182.  0.00014     1.41935  328.   RY ( 5) C 16
  183.  0.00014     2.91945  371.   RY ( 7) C 20
  184.  0.00014     3.18769  264.   RY ( 8) N 11
  185.  0.00014     1.59443  329.   RY ( 6) C 16
  186.  0.00014     2.13110  253.   RY ( 2) H 10
  187.  0.00014     2.10874  238.   RY ( 2) H  7
  188.  0.00013     2.66340   90.   RY (10) C  1
  189.  0.00013     2.10711  248.   RY ( 2) H  9
  190.  0.00013     2.11787  243.   RY ( 2) H  8
  191.  0.00013     2.04085  372.   RY ( 8) C 20
  192.  0.00013     2.39209  392.   RY ( 2) H 21
  193.  0.00013     1.63699  373.   RY ( 9) C 20
  194.  0.00012     2.27842  221.   RY (11) C  6
  195.  0.00012     1.47607  289.   RY ( 7) C 12
  196.  0.00012     2.29919  465.   RY ( 3) H 27
  197.  0.00011     2.27289  222.   RY (12) C  6
  198.  0.00011     2.19060  139.   RY ( 7) C  3
  199.  0.00011     2.41491  397.   RY ( 2) H 22
  200.  0.00011     2.15065  113.   RY ( 7) C  2
  201.  0.00011     2.21421  351.   RY ( 2) H 17
  202.  0.00011     2.39325  428.   RY ( 2) H 24
  203.  0.00010     1.42691  192.   RY ( 8) C  5
  204.  0.00010     3.27384  265.   RY ( 9) N 11
  205.  0.00010     1.89079   91.   RY (11) C  1
  206.  0.00010     2.19848  310.   RY ( 2) H 13
  207.  0.00010     2.11612  315.   RY ( 2) H 14
  208.  0.00009     1.89818  239.   RY ( 3) H  7
  209.  0.00009     2.30471  429.   RY ( 3) H 24
  210.  0.00009     2.39101  165.   RY ( 7) C  4
  211.  0.00009     2.02002  249.   RY ( 3) H  9
  212.  0.00009     3.21240  266.   RY (10) N 11
  213.  0.00009     1.94981  254.   RY ( 3) H 10
  214.  0.00009     2.11663  320.   RY ( 2) H 15
  215.  0.00009     2.18959  356.   RY ( 2) H 18
  216.  0.00009     2.31631  393.   RY ( 3) H 21
  217.  0.00009     2.03431  244.   RY ( 3) H  8
  218.  0.00008     2.27345  374.   RY (10) C 20
  219.  0.00008     2.38978  398.   RY ( 3) H 22
  220.  0.00008     2.21482  471.   RY ( 4) O 28
  221.  0.00008     3.05485   92.   RY (12) C  1
  222.  0.00008     2.61791  193.   RY ( 9) C  5
  223.  0.00008     2.36978  433.   RY ( 2) H 25
  224.  0.00008     1.59005  330.   RY ( 7) C 16
  225.  0.00008     2.22026  361.   RY ( 2) H 19
  226.  0.00008     3.57851  409.   RY ( 9) C 23
  227.  0.00008     2.78938  444.   RY ( 8) C 26
  228.  0.00007     2.86004  267.   RY (11) N 11
  229.  0.00007     2.15369  311.   RY ( 3) H 13
  230.  0.00007     2.16439  321.   RY ( 3) H 15
  231.  0.00007     2.35443  114.   RY ( 8) C  2
  232.  0.00007     2.13832  352.   RY ( 3) H 17
  233.  0.00007     2.53976  255.   RY ( 4) H 10
  234.  0.00006     2.12786  357.   RY ( 3) H 18
  235.  0.00006     2.54084  240.   RY ( 4) H  7
  236.  0.00006     2.12787  316.   RY ( 3) H 14
  237.  0.00006     2.65785  115.   RY ( 9) C  2
  238.  0.00006     2.52577  250.   RY ( 4) H  9
  239.  0.00006     1.59580  331.   RY ( 8) C 16
  240.  0.00006     2.10894  362.   RY ( 3) H 19
  241.  0.00006     2.82992  375.   RY (11) C 20
  242.  0.00005     2.49451   93.   RY (13) C  1
  243.  0.00006     2.34622  434.   RY ( 3) H 25
  244.  0.00005     2.27448  353.   RY ( 4) H 17
  245.  0.00005     3.49184  223.   RY (13) C  6
  246.  0.00005     2.08852  358.   RY ( 4) H 18
  247.  0.00005     2.31706  394.   RY ( 4) H 21
  248.  0.00005     2.51253  410.   RY (10) C 23
  249.  0.00005     2.09985  466.   RY ( 4) H 27
  250.  0.00005     2.52297  245.   RY ( 4) H  8
  251.  0.00005     1.65060  290.   RY ( 8) C 12
  252.  0.00005     1.78229  166.   RY ( 8) C  4
  253.  0.00005     2.20452  317.   RY ( 4) H 14
  254.  0.00005     2.22443  445.   RY ( 9) C 26
  255.  0.00005     2.79364   94.   RY (14) C  1
  256.  0.00004     2.32671  224.   RY (14) C  6
  257.  0.00004     2.93166  268.   RY (12) N 11
  258.  0.00004     2.19761  312.   RY ( 4) H 13
  259.  0.00004     1.85556  140.   RY ( 8) C  3
  260.  0.00004     2.25971  322.   RY ( 4) H 15
  261.  0.00004     1.90992  472.   RY ( 5) O 28
  262.  0.00004     1.94524  194.   RY (10) C  5
  263.  0.00004     2.23539  399.   RY ( 4) H 22
  264.  0.00004     1.75016  411.   RY (11) C 23
  265.  0.00004     2.34006  435.   RY ( 4) H 25
  266.  0.00003     2.03876  116.   RY (10) C  2
  267.  0.00003     3.81645  225.   RY (15) C  6
  268.  0.00003     2.26567  376.   RY (12) C 20
  269.  0.00003     2.13628  446.   RY (10) C 26
  270.  0.00003     2.24247  363.   RY ( 4) H 19
  271.  0.00003     2.26705  117.   RY (11) C  2
  272.  0.00003     2.04641  195.   RY (11) C  5
  273.  0.00003     1.70159  291.   RY ( 9) C 12
  274.  0.00003     2.32540  430.   RY ( 4) H 24
  275.  0.00002     3.56669  269.   RY (13) N 11
  276.  0.00002     3.10542  226.   RY (16) C  6
  277.  0.00002     2.93103  377.   RY (13) C 20
  278.  0.00002     2.44989  412.   RY (12) C 23
  279.  0.00002     2.16024  447.   RY (11) C 26
  280.  0.00002     3.14604   95.   RY (15) C  1
  281.  0.00002     4.50728  270.   RY (14) N 11
  282.  0.00002     2.33399  292.   RY (10) C 12
  283.  0.00002     2.42942  332.   RY ( 9) C 16
  284.  0.00002     2.30349  167.   RY ( 9) C  4
  285.  0.00002     1.98922  333.   RY (10) C 16
  286.  0.00002     1.04525  473.   RY ( 6) O 28
  287.  0.00002     3.65549  227.   RY (17) C  6
  288.  0.00002     2.87866  467.   RY ( 5) H 27
  289.  0.00002     3.26742   96.   RY (16) C  1
  290.  0.00002     2.42042  196.   RY (12) C  5
  291.  0.00002     2.58778  293.   RY (11) C 12
  292.  0.00002     2.66175  395.   RY ( 5) H 21
  293.  0.00001     2.52275  141.   RY ( 9) C  3
  294.  0.00001     2.36047  294.   RY (12) C 12
  295.  0.00001     2.90806   97.   RY (17) C  1
  296.  0.00001     2.51929  118.   RY (12) C  2
  297.  0.00001     2.35676  334.   RY (11) C 16
  298.  0.00001     2.53095  378.   RY (14) C 20
  299.  0.00001     2.71457  142.   RY (10) C  3
  300.  0.00001     2.79625  168.   RY (10) C  4
  301.  0.00001     2.47528  197.   RY (13) C  5
  302.  0.00001     2.88610  256.   RY ( 5) H 10
  303.  0.00001     3.55609  198.   RY (14) C  5
  304.  0.00001     2.86087  241.   RY ( 5) H  7
  305.  0.00001     2.78696   98.   RY (18) C  1
  306.  0.00001     4.31091  271.   RY (15) N 11
  307.  0.00001     3.53401  413.   RY (13) C 23
  308.  0.00001     2.38176  119.   RY (13) C  2
  309.  0.00001     2.65543  143.   RY (11) C  3
  310.  0.00001     1.60945  169.   RY (11) C  4
  311.  0.00001     2.32204  170.   RY (12) C  4
  312.  0.00001     3.31676  228.   RY (18) C  6
  313.  0.00001     2.88259  246.   RY ( 5) H  8
  314.  0.00001     2.91434  251.   RY ( 5) H  9
  315.  0.00001     4.73179  272.   RY (16) N 11
  316.  0.00001     2.65647  318.   RY ( 5) H 14
  317.  0.00001     2.60969  120.   RY (14) C  2
  318.  0.00001     1.76195  144.   RY (12) C  3
  319.  0.00001     3.60110  199.   RY (15) C  5
  320.  0.00000     2.79739   99.   RY (19) C  1
  321.  0.00000     3.51377  121.   RY (15) C  2
  322.  0.00001     3.63583  229.   RY (19) C  6
  323.  0.00001     2.26182  295.   RY (13) C 12
  324.  0.00001     2.60916  364.   RY ( 5) H 19
  325.  0.00001     3.05324  379.   RY (15) C 20
  326.  0.00001     3.15854  380.   RY (16) C 20
  327.  0.00001     2.49579  436.   RY ( 5) H 25
  328.  0.00001     2.23253  448.   RY (12) C 26
  329.  0.00001     1.95887  474.   RY ( 7) O 28
  330.  0.00001     1.99825  449.   RY (13) C 26
  331.  0.00001     2.39057  400.   RY ( 5) H 22
  332.  0.00001     3.06083  475.   RY ( 8) O 28
  333.  0.00000     2.59612  171.   RY (13) C  4
  334.  0.00000     3.62112  230.   RY (20) C  6
  335.  0.00000     5.46186  273.   RY (17) N 11
  336.  0.00000     3.59855  100.   RY (20) C  1
  337.  0.00000     4.22223  101.   RY (21) C  1
  338.  0.00000    14.63697  102.   RY (22) C  1
  339.  0.00000     7.04909  103.   RY (23) C  1
  340.  0.00000     3.03603  104.   RY (24) C  1
  341.  0.00000     3.48724  105.   RY (25) C  1
  342.  0.00000     3.00585  122.   RY (16) C  2
  343.  0.00000     2.78496  123.   RY (17) C  2
  344.  0.00000     3.38264  124.   RY (18) C  2
  345.  0.00000     2.89280  145.   RY (13) C  3
  346.  0.00000     3.51524  106.   RY (26) C  1
  347.  0.00000     4.59286  125.   RY (19) C  2
  348.  0.00000     7.18824  126.   RY (20) C  2
  349.  0.00000     3.57871  127.   RY (21) C  2
  350.  0.00000     5.51564  128.   RY (22) C  2
  351.  0.00000     6.37108  129.   RY (23) C  2
  352.  0.00000     3.16358  130.   RY (24) C  2
  353.  0.00000     4.36227  131.   RY (25) C  2
  354.  0.00000     4.01707  132.   RY (26) C  2
  355.  0.00000     3.00805  146.   RY (14) C  3
  356.  0.00000     4.36346  147.   RY (15) C  3
  357.  0.00000     3.60235  148.   RY (16) C  3
  358.  0.00000     6.58844  149.   RY (17) C  3
  359.  0.00000     3.29195  150.   RY (18) C  3
  360.  0.00000     3.71744  172.   RY (14) C  4
  361.  0.00000     4.87917  151.   RY (19) C  3
  362.  0.00000     2.75692  152.   RY (20) C  3
  363.  0.00000     3.48500  153.   RY (21) C  3
  364.  0.00000     3.93365  154.   RY (22) C  3
  365.  0.00000     5.32014  155.   RY (23) C  3
  366.  0.00000     8.27430  156.   RY (24) C  3
  367.  0.00000     3.24503  157.   RY (25) C  3
  368.  0.00000     2.16033  158.   RY (26) C  3
  369.  0.00000     3.96320  173.   RY (15) C  4
  370.  0.00000     3.57370  174.   RY (16) C  4
  371.  0.00000     4.83432  175.   RY (17) C  4
  372.  0.00000     3.59199  176.   RY (18) C  4
  373.  0.00000     2.96062  200.   RY (16) C  5
  374.  0.00000     3.50634  201.   RY (17) C  5
  375.  0.00000     2.72198  202.   RY (18) C  5
  376.  0.00000     3.62167  203.   RY (19) C  5
  377.  0.00000     4.29426  274.   RY (18) N 11
  378.  0.00000     2.66503  296.   RY (14) C 12
  379.  0.00000     2.64662  313.   RY ( 5) H 13
  380.  0.00001     2.72661  323.   RY ( 5) H 15
  381.  0.00001     2.50076  414.   RY (14) C 23
  382.  0.00001     2.34163  431.   RY ( 5) H 24
  383.  0.00001     2.37261  450.   RY (14) C 26
  384.  0.00000     3.29907  231.   RY (21) C  6
  385.  0.00000     8.96584  177.   RY (19) C  4
  386.  0.00000     3.33836  178.   RY (20) C  4
  387.  0.00000     3.05512  179.   RY (21) C  4
  388.  0.00000     8.82994  180.   RY (22) C  4
  389.  0.00000     3.12950  181.   RY (23) C  4
  390.  0.00000     2.43145  182.   RY (24) C  4
  391.  0.00000     3.12980  183.   RY (25) C  4
  392.  0.00000     3.74480  184.   RY (26) C  4
  393.  0.00000    10.85739  204.   RY (20) C  5
  394.  0.00000     3.29347  205.   RY (21) C  5
  395.  0.00000     3.25534  206.   RY (22) C  5
  396.  0.00000     6.01384  207.   RY (23) C  5
  397.  0.00000     5.25935  208.   RY (24) C  5
  398.  0.00000     4.05148  209.   RY (25) C  5
  399.  0.00000     3.30012  232.   RY (22) C  6
  400.  0.00000     4.53198  210.   RY (26) C  5
  401.  0.00000    18.25910  233.   RY (23) C  6
  402.  0.00000     3.42354  234.   RY (24) C  6
  403.  0.00000     4.93052  275.   RY (19) N 11
  404.  0.00000     4.40889  276.   RY (20) N 11
  405.  0.00000     1.96215  297.   RY (15) C 12
  406.  0.00000     2.52434  335.   RY (12) C 16
  407.  0.00000     2.06062  336.   RY (13) C 16
  408.  0.00000     4.39034  235.   RY (25) C  6
  409.  0.00000     3.54630  236.   RY (26) C  6
  410.  0.00000    16.94788  277.   RY (21) N 11
  411.  0.00000     5.24468  278.   RY (22) N 11
  412.  0.00000    11.45031  279.   RY (23) N 11
  413.  0.00000     4.69314  280.   RY (24) N 11
  414.  0.00000     5.05120  281.   RY (25) N 11
  415.  0.00000     4.50412  282.   RY (26) N 11
  416.  0.00000     2.96739  298.   RY (16) C 12
  417.  0.00000     2.64835  337.   RY (14) C 16
  418.  0.00000     2.53118  354.   RY ( 5) H 17
  419.  0.00000     2.53456  359.   RY ( 5) H 18
  420.  0.00000     2.64699  381.   RY (17) C 20
  421.  0.00000     2.65766  338.   RY (15) C 16
  422.  0.00000     3.59426  382.   RY (18) C 20
  423.  0.00000     2.87014  383.   RY (19) C 20
  424.  0.00000     2.69702  415.   RY (15) C 23
  425.  0.00000     2.35705  451.   RY (15) C 26
  426.  0.00000     2.58891  452.   RY (16) C 26
  427.  0.00000     3.00212  476.   RY ( 9) O 28
  428.  0.00000     3.28866  299.   RY (17) C 12
  429.  0.00000     3.27292  300.   RY (18) C 12
  430.  0.00000     4.19929  301.   RY (19) C 12
  431.  0.00000    17.62649  302.   RY (20) C 12
  432.  0.00000     3.31749  303.   RY (21) C 12
  433.  0.00000     3.08700  304.   RY (22) C 12
  434.  0.00000     3.29707  305.   RY (23) C 12
  435.  0.00000     3.94422  306.   RY (24) C 12
  436.  0.00000     4.60792  307.   RY (25) C 12
  437.  0.00000     5.02952  308.   RY (26) C 12
  438.  0.00000    17.57569  339.   RY (16) C 16
  439.  0.00000     2.61012  340.   RY (17) C 16
  440.  0.00000     3.18037  341.   RY (18) C 16
  441.  0.00000     2.91530  342.   RY (19) C 16
  442.  0.00000     2.62351  384.   RY (20) C 20
  443.  0.00000     3.66116  343.   RY (20) C 16
  444.  0.00000     3.35430  344.   RY (21) C 16
  445.  0.00000     4.84516  345.   RY (22) C 16
  446.  0.00000     3.93489  346.   RY (23) C 16
  447.  0.00000     3.25719  347.   RY (24) C 16
  448.  0.00000     3.30897  348.   RY (25) C 16
  449.  0.00000     4.52143  349.   RY (26) C 16
  450.  0.00000     3.59742  385.   RY (21) C 20
  451.  0.00000     3.50009  386.   RY (22) C 20
  452.  0.00000    19.43554  387.   RY (23) C 20
  453.  0.00000     3.52252  388.   RY (24) C 20
  454.  0.00000     4.21230  389.   RY (25) C 20
  455.  0.00000     3.41767  390.   RY (26) C 20
  456.  0.00000     3.01437  416.   RY (16) C 23
  457.  0.00000     3.57150  417.   RY (17) C 23
  458.  0.00000     4.16361  418.   RY (18) C 23
  459.  0.00000    12.30069  419.   RY (19) C 23
  460.  0.00000     3.83072  420.   RY (20) C 23
  461.  0.00000     2.72996  453.   RY (17) C 26
  462.  0.00000     3.52702  421.   RY (21) C 23
  463.  0.00000     3.38661  422.   RY (22) C 23
  464.  0.00000     3.34056  423.   RY (23) C 23
  465.  0.00000     4.40779  424.   RY (24) C 23
  466.  0.00000     4.09890  425.   RY (25) C 23
  467.  0.00000     3.54548  426.   RY (26) C 23
  468.  0.00000    16.74098  454.   RY (18) C 26
  469.  0.00000     3.22943  455.   RY (19) C 26
  470.  0.00000     3.93417  456.   RY (20) C 26
  471.  0.00000     2.72581  457.   RY (21) C 26
  472.  0.00000     2.68868  458.   RY (22) C 26
  473.  0.00000     3.57985  477.   RY (10) O 28
  474.  0.00000     4.86191  459.   RY (23) C 26
  475.  0.00000     3.39684  460.   RY (24) C 26
  476.  0.00000     4.78434  461.   RY (25) C 26
  477.  0.00000     3.70537  462.   RY (26) C 26
  478.  0.00000     3.34540  478.   RY (11) O 28
  479.  0.00000     3.59642  479.   RY (12) O 28
  480.  0.00000     3.08469  480.   RY (13) O 28
  481.  0.00000     6.49709  481.   RY (14) O 28
  482.  0.00000     8.02662  482.   RY (15) O 28
  483.  0.00000    10.43838  483.   RY (16) O 28
  484.  0.00000     6.87945  484.   RY (17) O 28
  485.  0.00000    15.50726  485.   RY (18) O 28
  486.  0.00000     6.60703  486.   RY (19) O 28
  487.  0.00000    11.52512  487.   RY (20) O 28
  488.  0.00000     7.38818  488.   RY (21) O 28
  489.  0.00000     9.81171  489.   RY (22) O 28
  490.  0.00000     6.21514  490.   RY (23) O 28
  491.  0.00000     6.33119  491.   RY (24) O 28
  492.  0.00000     6.29902  492.   RY (25) O 28
  493.  0.00000     9.84999  493.   RY (26) O 28

 Maximum scratch memory used by NBO was 2207538 words
 Maximum scratch memory used by G09NBO was 1585776 words

 Read Unf file /home/aloke/aloke/prakash/Gau-26281.EUF:
 Label Gaussian matrix elements                                         IVers= 1 NLab= 2 Version=AM64L-G09RevD.01
 Title Energy Optimisation and Frequency calculation                   
 NAtoms=    28 NBasis=   493 NBsUse=   493 ICharg=     0 Multip=     1 NE=    96 Len12L=8 Len4L=8
 Label GAUSSIAN SCALARS                                                 NI= 1 NR= 1 NTot=       1 LenBuf=    2000 N=    1000       1       1       1       1
 Label ALPHA ORBITAL ENERGIES                                           NI= 0 NR= 1 NTot=     493 LenBuf=    4000 N=     493       0       0       0       0
 Label ALPHA MO COEFFICIENTS                                            NI= 0 NR= 1 NTot=  243049 LenBuf=    4000 N=     493     493       0       0       0
 Store file  524 Len=  243049.
 Label NPA CHARGES                                                      NI= 0 NR= 1 NTot=      28 LenBuf=    4000 N=      28       0       0       0       0
 Recovered energy= -558.396508010     dipole=      0.000000000000      0.000000000000      0.000000000000
 1\1\GINC-CN131\SP\RB3LYP\def2TZVP\C11H15N1O1\ALOKE\12-Jul-2021\0\\# b
 3lyp/def2tzvp empiricaldispersion=gd3 pop=nbo6read pop=saveNBOs int=(g
 rid=ultrafine) scf=(tight,maxcycle=300)\\Energy Optimisation and Frequ
 ency calculation\\0,1\C,0,-0.803143,-0.849642,0.381667\C,0,-2.0598,-1.
 413105,0.16624\C,0,-3.117455,-0.666342,-0.339884\C,0,-2.9233,0.673714,
 -0.644571\C,0,-1.68299,1.259263,-0.421275\C,0,-0.623262,0.515306,0.098
 602\H,0,-2.205166,-2.465952,0.379562\H,0,-4.080092,-1.132744,-0.506019
 \H,0,-3.73423,1.266782,-1.048442\H,0,-1.539212,2.306641,-0.650345\N,0,
 0.658795,1.094598,0.338956\C,0,1.105212,2.100387,-0.612735\H,0,0.61238
 9,3.074474,-0.479929\H,0,2.180284,2.241454,-0.49422\H,0,0.93,1.746817,
 -1.627016\C,0,0.878921,1.503947,1.721952\H,0,0.559836,0.719757,2.40649
 4\H,0,1.942702,1.691915,1.882525\H,0,0.323435,2.419846,1.974663\C,0,0.
 346179,-1.722333,0.826405\H,0,0.80771,-1.340795,1.741747\H,0,-0.04946,
 -2.707332,1.078059\C,0,1.440911,-1.885685,-0.246084\H,0,2.015649,-2.79
 3324,-0.020321\H,0,1.014576,-2.011245,-1.24233\C,0,2.462941,-0.775881,
 -0.285349\H,0,2.828833,-0.457539,0.714208\O,0,2.954488,-0.332339,-1.29
 3892\\Version=AM64L-G09RevD.01\State=1-A\HF=-558.396508\RMSD=5.985e-09
 \Dipole=-0.669499,-0.0540813,0.886444\Quadrupole=-3.7801529,6.0832192,
 -2.3030663,-0.0942711,6.6715758,-1.3449356\PG=C01 [X(C11H15N1O1)]\\@


 There are more things in heaven and earth, Horatio,
 than are dreamt of in your philosophy.
                   -- Hamlet, Act I, Scene 5
 Job cpu time:       0 days  0 hours 46 minutes 43.5 seconds.
 File lengths (MBytes):  RWF=     95 Int=      0 D2E=      0 Chk=     10 Scr=      1
 Normal termination of Gaussian 09 at Mon Jul 12 00:30:32 2021.
