 Entering Gaussian System, Link 0=g09
 Initial command:
 /home/apps/iiser/g09/g09/l1.exe "/home/aloke/aloke/prakash/Gau-5716.inp" -scrdir="/home/aloke/aloke/prakash/"
 Entering Link 1 = /home/apps/iiser/g09/g09/l1.exe PID=      5717.
  
 Copyright (c) 1988,1990,1992,1993,1995,1998,2003,2009,2013,
            Gaussian, Inc.  All Rights Reserved.
  
 This is part of the Gaussian(R) 09 program.  It is based on
 the Gaussian(R) 03 system (copyright 2003, Gaussian, Inc.),
 the Gaussian(R) 98 system (copyright 1998, Gaussian, Inc.),
 the Gaussian(R) 94 system (copyright 1995, Gaussian, Inc.),
 the Gaussian 92(TM) system (copyright 1992, Gaussian, Inc.),
 the Gaussian 90(TM) system (copyright 1990, Gaussian, Inc.),
 the Gaussian 88(TM) system (copyright 1988, Gaussian, Inc.),
 the Gaussian 86(TM) system (copyright 1986, Carnegie Mellon
 University), and the Gaussian 82(TM) system (copyright 1983,
 Carnegie Mellon University). Gaussian is a federally registered
 trademark of Gaussian, Inc.
  
 This software contains proprietary and confidential information,
 including trade secrets, belonging to Gaussian, Inc.
  
 This software is provided under written license and may be
 used, copied, transmitted, or stored only in accord with that
 written license.
  
 The following legend is applicable only to US Government
 contracts under FAR:
  
                    RESTRICTED RIGHTS LEGEND
  
 Use, reproduction and disclosure by the US Government is
 subject to restrictions as set forth in subparagraphs (a)
 and (c) of the Commercial Computer Software - Restricted
 Rights clause in FAR 52.227-19.
  
 Gaussian, Inc.
 340 Quinnipiac St., Bldg. 40, Wallingford CT 06492
  
  
 ---------------------------------------------------------------
 Warning -- This program may not be used in any manner that
 competes with the business of Gaussian, Inc. or will provide
 assistance to any competitor of Gaussian, Inc.  The licensee
 of this program is prohibited from giving any competitor of
 Gaussian, Inc. access to this program.  By using this program,
 the user acknowledges that Gaussian, Inc. is engaged in the
 business of creating and licensing software in the field of
 computational chemistry and represents and warrants to the
 licensee that it is not a competitor of Gaussian, Inc. and that
 it will not use this program in any manner prohibited above.
 ---------------------------------------------------------------
  

 Cite this work as:
 Gaussian 09, Revision D.01,
 M. J. Frisch, G. W. Trucks, H. B. Schlegel, G. E. Scuseria, 
 M. A. Robb, J. R. Cheeseman, G. Scalmani, V. Barone, B. Mennucci, 
 G. A. Petersson, H. Nakatsuji, M. Caricato, X. Li, H. P. Hratchian, 
 A. F. Izmaylov, J. Bloino, G. Zheng, J. L. Sonnenberg, M. Hada, 
 M. Ehara, K. Toyota, R. Fukuda, J. Hasegawa, M. Ishida, T. Nakajima, 
 Y. Honda, O. Kitao, H. Nakai, T. Vreven, J. A. Montgomery, Jr., 
 J. E. Peralta, F. Ogliaro, M. Bearpark, J. J. Heyd, E. Brothers, 
 K. N. Kudin, V. N. Staroverov, T. Keith, R. Kobayashi, J. Normand, 
 K. Raghavachari, A. Rendell, J. C. Burant, S. S. Iyengar, J. Tomasi, 
 M. Cossi, N. Rega, J. M. Millam, M. Klene, J. E. Knox, J. B. Cross, 
 V. Bakken, C. Adamo, J. Jaramillo, R. Gomperts, R. E. Stratmann, 
 O. Yazyev, A. J. Austin, R. Cammi, C. Pomelli, J. W. Ochterski, 
 R. L. Martin, K. Morokuma, V. G. Zakrzewski, G. A. Voth, 
 P. Salvador, J. J. Dannenberg, S. Dapprich, A. D. Daniels, 
 O. Farkas, J. B. Foresman, J. V. Ortiz, J. Cioslowski, 
 and D. J. Fox, Gaussian, Inc., Wallingford CT, 2013.
 
 ******************************************
 Gaussian 09:  AM64L-G09RevD.01 24-Apr-2013
                11-Jul-2021 
 ******************************************
 %LindaWorkers=cn031
 %chk=mod_bp34_n.chk
 %mem=128GB
 %nprocshared=48
 Will use up to   48 processors via shared memory.
 SetLPE:  input flags=" -opt "Tsnet.Node.lindarsharg: ssh" "
 SetLPE:    new flags=" -opt "Tsnet.Node.lindarsharg: ssh"  -nodelist 'cn031'"
 Will use up to    1 processors via Linda.
 ----------------------------------------------------------------------
 # b3lyp/def2tzvp empiricaldispersion=gd3 pop=nbo6read pop=saveNBOs int
 =(grid=ultrafine) scf=(tight,maxcycle=300)
 ----------------------------------------------------------------------
 1/38=1,163=2/1;
 2/12=2,17=6,18=5,40=1/2;
 3/5=44,7=101,11=2,16=1,25=1,30=1,74=-5,75=-5,124=31/1,2,3;
 4//1;
 5/5=2,7=300,32=2,38=5/2;
 6/7=2,8=2,9=2,10=2,28=1,40=2,73=1,113=1,114=1,124=2103/1,12;
 99/5=1,9=1/99;
 ---------------------------------------------
 Energy Optimisation and Frequency calculation
 ---------------------------------------------
 Symbolic Z-matrix:
 Charge =  0 Multiplicity = 1
 C                    -0.74328  -0.89904   0.24877 
 C                    -1.9959   -1.51109   0.23758 
 C                    -3.16315  -0.79456   0.00008 
 C                    -3.08691   0.56931  -0.24177 
 C                    -1.8518    1.20551  -0.21902 
 C                    -0.67888   0.49224   0.03666 
 H                    -2.05324  -2.58178   0.39656 
 H                    -4.11919  -1.30213  -0.00993 
 H                    -3.984     1.14287  -0.43868 
 H                    -1.80336   2.27202  -0.39143 
 N                     0.59348   1.13347   0.07333 
 C                     0.76464   2.30031  -0.77724 
 H                     0.25937   3.19956  -0.39448 
 H                     1.83015   2.52697  -0.84687 
 H                     0.38822   2.0902   -1.77803 
 C                     1.11103   1.36827   1.42107 
 H                     0.61195   2.22527   1.89578 
 H                     2.18373   1.5557    1.37281 
 H                     0.95337   0.4936    2.04638 
 C                     0.4966   -1.74848   0.39568 
 H                     0.1828   -2.7858    0.516 
 H                     1.0685   -1.49672   1.29142 
 C                     1.45432  -1.64716  -0.81312 
 H                     2.01047  -2.58591  -0.90558 
 H                     0.89298  -1.50634  -1.73841 
 C                     2.50067  -0.56419  -0.66624 
 H                     2.61891   0.12091  -1.52833 
 O                     3.24512  -0.49118   0.28309 
 
                          Input orientation:                          
 ---------------------------------------------------------------------
 Center     Atomic      Atomic             Coordinates (Angstroms)
 Number     Number       Type             X           Y           Z
 ---------------------------------------------------------------------
      1          6           0       -0.743277   -0.899037    0.248774
      2          6           0       -1.995895   -1.511092    0.237584
      3          6           0       -3.163154   -0.794562    0.000084
      4          6           0       -3.086911    0.569307   -0.241770
      5          6           0       -1.851799    1.205508   -0.219021
      6          6           0       -0.678880    0.492236    0.036655
      7          1           0       -2.053241   -2.581777    0.396562
      8          1           0       -4.119186   -1.302134   -0.009932
      9          1           0       -3.983995    1.142870   -0.438678
     10          1           0       -1.803359    2.272020   -0.391428
     11          7           0        0.593484    1.133471    0.073330
     12          6           0        0.764637    2.300310   -0.777240
     13          1           0        0.259367    3.199559   -0.394483
     14          1           0        1.830150    2.526965   -0.846869
     15          1           0        0.388223    2.090198   -1.778033
     16          6           0        1.111030    1.368271    1.421071
     17          1           0        0.611945    2.225266    1.895775
     18          1           0        2.183733    1.555695    1.372805
     19          1           0        0.953366    0.493596    2.046385
     20          6           0        0.496596   -1.748481    0.395683
     21          1           0        0.182798   -2.785802    0.516002
     22          1           0        1.068504   -1.496724    1.291422
     23          6           0        1.454319   -1.647156   -0.813124
     24          1           0        2.010474   -2.585908   -0.905579
     25          1           0        0.892979   -1.506338   -1.738407
     26          6           0        2.500667   -0.564185   -0.666238
     27          1           0        2.618906    0.120907   -1.528332
     28          8           0        3.245118   -0.491176    0.283092
 ---------------------------------------------------------------------
                    Distance matrix (angstroms):
                    1          2          3          4          5
     1  C    0.000000
     2  C    1.394198   0.000000
     3  C    2.434865   1.390077   0.000000
     4  C    2.808788   2.397531   1.387244   0.000000
     5  C    2.424204   2.758472   2.401653   1.389522   0.000000
     6  C    1.408823   2.405873   2.798000   2.425299   1.396376
     7  H    2.137630   1.083941   2.140850   3.377169   3.842271
     8  H    3.409718   2.147858   1.082463   2.149798   3.387186
     9  H    3.891559   3.384285   2.149403   1.082824   2.144396
    10  H    3.404297   3.839878   3.377314   2.137553   1.081443
    11  N    2.439016   3.704805   4.223151   3.736693   2.463751
    12  C    3.682707   4.814269   5.060633   4.256468   2.890664
    13  H    4.268204   5.260793   5.274688   4.259005   2.909304
    14  H    4.422720   5.667501   6.056646   5.326918   3.961968
    15  H    3.784675   4.766133   4.908749   4.092648   2.868953
    16  C    3.154904   4.398222   4.996569   4.585422   3.390391
    17  H    3.782923   4.848793   5.192724   4.581794   3.403278
    18  H    3.982027   5.306901   5.999773   5.599956   4.352248
    19  H    2.837152   3.998584   4.774142   4.643837   3.675300
    20  C    1.510107   2.508757   3.802661   4.315091   3.823463
    21  H    2.118704   2.539509   3.927671   4.745732   4.539868
    22  H    2.174142   3.240574   4.479678   4.887396   4.255780
    23  C    2.552790   3.609221   4.765426   5.085462   4.406934
    24  H    3.429462   4.302679   5.549376   6.031530   5.455580
    25  H    2.644813   3.500022   4.470033   4.731569   4.146860
    26  C    3.387115   4.683225   5.707532   5.717168   4.719722
    27  H    3.937343   5.203678   6.050319   5.866230   4.783080
    28  O    4.009342   5.339524   6.421689   6.441638   5.395314
                    6          7          8          9         10
     6  C    0.000000
     7  H    3.386437   0.000000
     8  H    3.880417   2.463910   0.000000
     9  H    3.401919   4.277667   2.485990   0.000000
    10  H    2.148334   4.923689   4.275882   2.456092   0.000000
    11  N    1.425285   4.573041   5.305503   4.606035   2.693910
    12  C    2.452610   5.757866   6.117033   4.899367   2.596970
    13  H    2.897548   6.276763   6.291649   4.715723   2.261676
    14  H    3.349025   6.536520   7.124399   5.990544   3.670805
    15  H    2.642969   5.702364   5.911923   4.669860   2.599762
    16  C    2.426484   5.163827   6.044336   5.428513   3.549025
    17  H    2.850605   5.697238   6.201441   5.267249   3.326737
    18  H    3.333286   6.001972   7.057332   6.441488   4.418432
    19  H    2.589062   4.606465   5.760544   5.565485   4.087206
    20  C    2.555672   2.682546   4.655018   5.397385   4.698273
    21  H    3.423127   2.248502   4.580933   5.805863   5.509066
    22  H    2.929804   3.423946   5.351964   5.957218   5.028222
    23  C    3.138417   3.826204   5.641641   6.123701   5.113730
    24  H    4.194687   4.267244   6.326373   7.074987   6.197511
    25  H    3.100949   3.794058   5.305763   5.700217   4.833278
    26  C    3.423391   5.092966   6.693113   6.709446   5.161804
    27  H    3.669123   5.730504   7.052125   6.769790   5.047402
    28  O    4.052850   5.697025   7.414613   7.446552   5.794597
                   11         12         13         14         15
    11  N    0.000000
    12  C    1.454055   0.000000
    13  H    2.144575   1.100204   0.000000
    14  H    2.077964   1.091576   1.767596   0.000000
    15  H    2.094040   1.089689   1.778060   1.771154   0.000000
    16  C    1.462666   2.412728   2.715729   2.646367   3.358258
    17  H    2.124538   2.678424   2.513730   3.016147   3.683091
    18  H    2.096616   2.681600   3.086872   2.448538   3.665696
    19  H    2.105208   3.357483   3.709677   3.643386   4.182666
    20  C    2.901542   4.223778   5.016347   4.647767   4.412736
    21  H    3.965517   5.280109   6.054700   5.726838   5.392603
    22  H    2.937230   4.334647   5.054904   4.619791   4.769732
    23  C    3.042815   4.007423   5.009373   4.191142   4.004426
    24  H    4.098769   5.044176   6.066236   5.116389   5.025818
    25  H    3.215693   3.928216   4.934882   4.235642   3.631999
    26  C    2.658260   3.351336   4.388969   3.168190   3.569910
    27  H    2.773615   2.958420   4.041180   2.622145   2.986035
    28  O    3.116832   3.881943   4.795346   3.519676   4.367331
                   16         17         18         19         20
    16  C    0.000000
    17  H    1.099486   0.000000
    18  H    1.090023   1.786712   0.000000
    19  H    1.086707   1.771421   1.759422   0.000000
    20  C    3.338127   4.249029   3.836506   2.821412   0.000000
    21  H    4.351676   5.215241   4.856588   3.700040   1.090404
    22  H    2.868242   3.798276   3.250788   2.131807   1.092158
    23  C    3.768591   4.800352   3.945705   3.607016   1.545547
    24  H    4.675236   5.740284   4.730109   4.394874   2.164808
    25  H    4.277058   5.216429   4.552113   4.281125   2.184054
    26  C    3.165807   4.232283   2.958384   3.297175   2.558620
    27  H    3.539574   4.492297   3.265668   3.961253   3.420621
    28  O    3.050716   4.112591   2.550234   3.054686   3.024544
                   21         22         23         24         25
    21  H    0.000000
    22  H    1.745701   0.000000
    23  C    2.163298   2.144900   0.000000
    24  H    2.324059   2.626869   1.095040   0.000000
    25  H    2.687703   3.034924   1.091367   1.762915   0.000000
    26  C    3.421373   2.598683   1.513025   2.094024   2.149851
    27  H    4.308466   3.601595   2.234688   2.843389   2.381361
    28  O    3.833714   2.601058   2.396861   2.706508   3.263368
                   26         27         28
    26  C    0.000000
    27  H    1.107492   0.000000
    28  O    1.208621   2.011975   0.000000
 Stoichiometry    C11H15NO
 Framework group  C1[X(C11H15NO)]
 Deg. of freedom    78
 Full point group                 C1      NOp   1
 Largest Abelian subgroup         C1      NOp   1
 Largest concise Abelian subgroup C1      NOp   1
                         Standard orientation:                         
 ---------------------------------------------------------------------
 Center     Atomic      Atomic             Coordinates (Angstroms)
 Number     Number       Type             X           Y           Z
 ---------------------------------------------------------------------
      1          6           0       -0.743277   -0.899037    0.248774
      2          6           0       -1.995895   -1.511092    0.237584
      3          6           0       -3.163154   -0.794562    0.000084
      4          6           0       -3.086911    0.569307   -0.241770
      5          6           0       -1.851799    1.205508   -0.219021
      6          6           0       -0.678880    0.492236    0.036655
      7          1           0       -2.053241   -2.581777    0.396562
      8          1           0       -4.119186   -1.302134   -0.009932
      9          1           0       -3.983995    1.142870   -0.438678
     10          1           0       -1.803359    2.272020   -0.391428
     11          7           0        0.593484    1.133471    0.073330
     12          6           0        0.764637    2.300310   -0.777240
     13          1           0        0.259367    3.199559   -0.394483
     14          1           0        1.830150    2.526965   -0.846869
     15          1           0        0.388223    2.090198   -1.778033
     16          6           0        1.111030    1.368271    1.421071
     17          1           0        0.611945    2.225266    1.895775
     18          1           0        2.183733    1.555695    1.372805
     19          1           0        0.953366    0.493596    2.046385
     20          6           0        0.496596   -1.748481    0.395683
     21          1           0        0.182798   -2.785802    0.516002
     22          1           0        1.068504   -1.496724    1.291422
     23          6           0        1.454319   -1.647156   -0.813124
     24          1           0        2.010474   -2.585908   -0.905579
     25          1           0        0.892979   -1.506338   -1.738407
     26          6           0        2.500667   -0.564185   -0.666238
     27          1           0        2.618906    0.120907   -1.528332
     28          8           0        3.245118   -0.491176    0.283092
 ---------------------------------------------------------------------
 Rotational constants (GHZ):      1.3101782      0.6557908      0.5003666
 Standard basis: def2TZVP (5D, 7F)
 There are   558 symmetry adapted cartesian basis functions of A   symmetry.
 There are   493 symmetry adapted basis functions of A   symmetry.
   493 basis functions,   783 primitive gaussians,   558 cartesian basis functions
    48 alpha electrons       48 beta electrons
       nuclear repulsion energy       811.3560297834 Hartrees.
 NAtoms=   28 NActive=   28 NUniq=   28 SFac= 1.00D+00 NAtFMM=   60 NAOKFM=F Big=F
 Integral buffers will be    131072 words long.
 Raffenetti 2 integral format.
 Two-electron integral symmetry is turned on.
 Nuclear repulsion after empirical dispersion term =      811.3268662583 Hartrees.
 One-electron integrals computed using PRISM.
   1 Symmetry operations used in ECPInt.
 ECPInt:  NShTT=   20706 NPrTT=   61756 LenC2=   19872 LenP2D=   45408.
 LDataN:  DoStor=T MaxTD1= 6 Len=  172
 NBasis=   493 RedAO= T EigKep=  5.72D-06  NBF=   493
 NBsUse=   493 1.00D-06 EigRej= -1.00D+00 NBFU=   493
 ExpMin= 9.52D-02 ExpMax= 2.70D+04 ExpMxC= 9.22D+02 IAcc=3 IRadAn=         5 AccDes= 0.00D+00
 Harris functional with IExCor=  402 and IRadAn=       5 diagonalized for initial guess.
 HarFok:  IExCor=  402 AccDes= 0.00D+00 IRadAn=         5 IDoV= 1 UseB2=F ITyADJ=14
 ICtDFT=  3500011 ScaDFX=  1.000000  1.000000  1.000000  1.000000
 FoFCou: FMM=F IPFlag=           0 FMFlag=      100000 FMFlg1=           0
         NFxFlg=           0 DoJE=T BraDBF=F KetDBF=T FulRan=T
         wScrn=  0.000000 ICntrl=     500 IOpCl=  0 I1Cent=   200000004 NGrid=           0
         NMat0=    1 NMatS0=      1 NMatT0=    0 NMatD0=    1 NMtDS0=    0 NMtDT0=    0
 Petite list used in FoFCou.
 Keep R1 ints in memory in canonical form, NReq=7502545268.
 Requested convergence on RMS density matrix=1.00D-08 within 300 cycles.
 Requested convergence on MAX density matrix=1.00D-06.
 Requested convergence on             energy=1.00D-06.
 No special actions if energy rises.
 Integral accuracy reduced to 1.0D-05 until final iterations.
 Initial convergence to 1.0D-05 achieved.  Increase integral accuracy.
 SCF Done:  E(RB3LYP) =  -558.395956546     A.U. after   14 cycles
            NFock= 14  Conv=0.56D-08     -V/T= 2.0052

 **********************************************************************

            Population analysis using the SCF density.

 **********************************************************************

 Orbital symmetries:
       Occupied  (A) (A) (A) (A) (A) (A) (A) (A) (A) (A) (A) (A)
                 (A) (A) (A) (A) (A) (A) (A) (A) (A) (A) (A) (A)
                 (A) (A) (A) (A) (A) (A) (A) (A) (A) (A) (A) (A)
                 (A) (A) (A) (A) (A) (A) (A) (A) (A) (A) (A) (A)
       Virtual   (A) (A) (A) (A) (A) (A) (A) (A) (A) (A) (A) (A)
                 (A) (A) (A) (A) (A) (A) (A) (A) (A) (A) (A) (A)
                 (A) (A) (A) (A) (A) (A) (A) (A) (A) (A) (A) (A)
                 (A) (A) (A) (A) (A) (A) (A) (A) (A) (A) (A) (A)
                 (A) (A) (A) (A) (A) (A) (A) (A) (A) (A) (A) (A)
                 (A) (A) (A) (A) (A) (A) (A) (A) (A) (A) (A) (A)
                 (A) (A) (A) (A) (A) (A) (A) (A) (A) (A) (A) (A)
                 (A) (A) (A) (A) (A) (A) (A) (A) (A) (A) (A) (A)
                 (A) (A) (A) (A) (A) (A) (A) (A) (A) (A) (A) (A)
                 (A) (A) (A) (A) (A) (A) (A) (A) (A) (A) (A) (A)
                 (A) (A) (A) (A) (A) (A) (A) (A) (A) (A) (A) (A)
                 (A) (A) (A) (A) (A) (A) (A) (A) (A) (A) (A) (A)
                 (A) (A) (A) (A) (A) (A) (A) (A) (A) (A) (A) (A)
                 (A) (A) (A) (A) (A) (A) (A) (A) (A) (A) (A) (A)
                 (A) (A) (A) (A) (A) (A) (A) (A) (A) (A) (A) (A)
                 (A) (A) (A) (A) (A) (A) (A) (A) (A) (A) (A) (A)
                 (A) (A) (A) (A) (A) (A) (A) (A) (A) (A) (A) (A)
                 (A) (A) (A) (A) (A) (A) (A) (A) (A) (A) (A) (A)
                 (A) (A) (A) (A) (A) (A) (A) (A) (A) (A) (A) (A)
                 (A) (A) (A) (A) (A) (A) (A) (A) (A) (A) (A) (A)
                 (A) (A) (A) (A) (A) (A) (A) (A) (A) (A) (A) (A)
                 (A) (A) (A) (A) (A) (A) (A) (A) (A) (A) (A) (A)
                 (A) (A) (A) (A) (A) (A) (A) (A) (A) (A) (A) (A)
                 (A) (A) (A) (A) (A) (A) (A) (A) (A) (A) (A) (A)
                 (A) (A) (A) (A) (A) (A) (A) (A) (A) (A) (A) (A)
                 (A) (A) (A) (A) (A) (A) (A) (A) (A) (A) (A) (A)
                 (A) (A) (A) (A) (A) (A) (A) (A) (A) (A) (A) (A)
                 (A) (A) (A) (A) (A) (A) (A) (A) (A) (A) (A) (A)
                 (A) (A) (A) (A) (A) (A) (A) (A) (A) (A) (A) (A)
                 (A) (A) (A) (A) (A) (A) (A) (A) (A) (A) (A) (A)
                 (A) (A) (A) (A) (A) (A) (A) (A) (A) (A) (A) (A)
                 (A) (A) (A) (A) (A) (A) (A) (A) (A) (A) (A) (A)
                 (A) (A) (A) (A) (A) (A) (A) (A) (A) (A) (A) (A)
                 (A) (A) (A) (A) (A) (A) (A) (A) (A) (A) (A) (A)
                 (A) (A) (A) (A) (A) (A) (A) (A) (A) (A) (A) (A)
                 (A) (A) (A) (A) (A) (A) (A) (A) (A) (A) (A) (A)
                 (A) (A) (A) (A) (A) (A) (A) (A) (A) (A) (A) (A)
                 (A)
 The electronic state is 1-A.
 Alpha  occ. eigenvalues --  -19.11019 -14.33219 -10.25205 -10.21121 -10.20036
 Alpha  occ. eigenvalues --  -10.19278 -10.18476 -10.18085 -10.17873 -10.17727
 Alpha  occ. eigenvalues --  -10.17621 -10.17617 -10.17415  -1.03873  -0.94755
 Alpha  occ. eigenvalues --   -0.85732  -0.80095  -0.75043  -0.74499  -0.71815
 Alpha  occ. eigenvalues --   -0.67446  -0.64851  -0.60443  -0.58365  -0.55511
 Alpha  occ. eigenvalues --   -0.52162  -0.49607  -0.48847  -0.47727  -0.46785
 Alpha  occ. eigenvalues --   -0.45391  -0.43877  -0.43650  -0.43182  -0.41719
 Alpha  occ. eigenvalues --   -0.39963  -0.39592  -0.38703  -0.37755  -0.37286
 Alpha  occ. eigenvalues --   -0.36924  -0.35521  -0.34821  -0.33778  -0.27345
 Alpha  occ. eigenvalues --   -0.25765  -0.24876  -0.22274
 Alpha virt. eigenvalues --   -0.02296  -0.01448  -0.01194   0.02957   0.04864
 Alpha virt. eigenvalues --    0.05174   0.05885   0.07833   0.08287   0.08727
 Alpha virt. eigenvalues --    0.09106   0.09872   0.10649   0.11344   0.11538
 Alpha virt. eigenvalues --    0.12299   0.13550   0.13883   0.14649   0.14909
 Alpha virt. eigenvalues --    0.15491   0.16847   0.18301   0.18685   0.19732
 Alpha virt. eigenvalues --    0.20059   0.20634   0.21235   0.22637   0.23073
 Alpha virt. eigenvalues --    0.23773   0.24584   0.25289   0.25841   0.26107
 Alpha virt. eigenvalues --    0.28028   0.28840   0.29524   0.30104   0.31104
 Alpha virt. eigenvalues --    0.32196   0.33013   0.33348   0.33818   0.34229
 Alpha virt. eigenvalues --    0.34599   0.35795   0.36627   0.37238   0.37574
 Alpha virt. eigenvalues --    0.37893   0.39436   0.39971   0.40038   0.40290
 Alpha virt. eigenvalues --    0.41386   0.41685   0.42271   0.42490   0.43547
 Alpha virt. eigenvalues --    0.43909   0.44108   0.44860   0.45442   0.45739
 Alpha virt. eigenvalues --    0.46074   0.46886   0.47423   0.48653   0.48808
 Alpha virt. eigenvalues --    0.49602   0.50078   0.50353   0.50691   0.51770
 Alpha virt. eigenvalues --    0.52329   0.52882   0.53851   0.55214   0.57149
 Alpha virt. eigenvalues --    0.58031   0.60314   0.62237   0.62728   0.64034
 Alpha virt. eigenvalues --    0.64787   0.66170   0.66919   0.67756   0.68679
 Alpha virt. eigenvalues --    0.69746   0.70671   0.71674   0.72253   0.72761
 Alpha virt. eigenvalues --    0.75012   0.75867   0.76815   0.77962   0.80914
 Alpha virt. eigenvalues --    0.81248   0.82371   0.83189   0.84488   0.85696
 Alpha virt. eigenvalues --    0.86220   0.87322   0.88338   0.89783   0.91162
 Alpha virt. eigenvalues --    0.91913   0.92172   0.93801   0.95011   0.95356
 Alpha virt. eigenvalues --    0.96819   0.99948   1.00793   1.01203   1.02840
 Alpha virt. eigenvalues --    1.03586   1.04685   1.05100   1.06435   1.07076
 Alpha virt. eigenvalues --    1.08943   1.10299   1.10465   1.11755   1.13238
 Alpha virt. eigenvalues --    1.14779   1.17194   1.18118   1.18734   1.19875
 Alpha virt. eigenvalues --    1.22069   1.22473   1.22984   1.25310   1.26645
 Alpha virt. eigenvalues --    1.27522   1.29545   1.30105   1.30598   1.31570
 Alpha virt. eigenvalues --    1.34229   1.36032   1.37386   1.40206   1.41469
 Alpha virt. eigenvalues --    1.41987   1.43364   1.45073   1.47125   1.48050
 Alpha virt. eigenvalues --    1.48546   1.49142   1.50882   1.52059   1.52831
 Alpha virt. eigenvalues --    1.53863   1.54514   1.54920   1.55547   1.57614
 Alpha virt. eigenvalues --    1.57863   1.58497   1.58975   1.59398   1.61307
 Alpha virt. eigenvalues --    1.61809   1.63194   1.64797   1.65930   1.66458
 Alpha virt. eigenvalues --    1.67422   1.68186   1.70091   1.70425   1.70996
 Alpha virt. eigenvalues --    1.72179   1.73519   1.74314   1.76230   1.77542
 Alpha virt. eigenvalues --    1.79333   1.79878   1.82398   1.83415   1.84864
 Alpha virt. eigenvalues --    1.86498   1.87771   1.89753   1.90372   1.92141
 Alpha virt. eigenvalues --    1.93616   1.95539   1.96998   1.99098   2.00468
 Alpha virt. eigenvalues --    2.02203   2.02731   2.03917   2.05633   2.07101
 Alpha virt. eigenvalues --    2.07926   2.09766   2.11660   2.13864   2.15239
 Alpha virt. eigenvalues --    2.16893   2.18423   2.18589   2.20541   2.21062
 Alpha virt. eigenvalues --    2.23298   2.23921   2.24841   2.25851   2.27406
 Alpha virt. eigenvalues --    2.30075   2.30435   2.31290   2.33158   2.35115
 Alpha virt. eigenvalues --    2.35570   2.36910   2.39350   2.40030   2.41964
 Alpha virt. eigenvalues --    2.42812   2.44337   2.45051   2.46765   2.48976
 Alpha virt. eigenvalues --    2.50700   2.51977   2.53233   2.54456   2.54761
 Alpha virt. eigenvalues --    2.55972   2.57080   2.57692   2.59129   2.59206
 Alpha virt. eigenvalues --    2.60451   2.62319   2.62733   2.63572   2.64431
 Alpha virt. eigenvalues --    2.64710   2.65379   2.67263   2.67986   2.69610
 Alpha virt. eigenvalues --    2.70976   2.71359   2.72148   2.73078   2.73705
 Alpha virt. eigenvalues --    2.74809   2.76225   2.77011   2.79141   2.80751
 Alpha virt. eigenvalues --    2.81217   2.82713   2.83052   2.84724   2.86045
 Alpha virt. eigenvalues --    2.86610   2.86914   2.89199   2.89998   2.91243
 Alpha virt. eigenvalues --    2.92918   2.94613   2.95730   2.96354   2.98178
 Alpha virt. eigenvalues --    2.99553   3.01058   3.02725   3.03976   3.04147
 Alpha virt. eigenvalues --    3.06353   3.06822   3.08791   3.10004   3.11360
 Alpha virt. eigenvalues --    3.12118   3.12927   3.13615   3.14361   3.15859
 Alpha virt. eigenvalues --    3.16425   3.17736   3.17970   3.18575   3.19916
 Alpha virt. eigenvalues --    3.21418   3.22624   3.22960   3.23799   3.24661
 Alpha virt. eigenvalues --    3.26365   3.28402   3.29278   3.30056   3.30361
 Alpha virt. eigenvalues --    3.31259   3.31782   3.33162   3.33766   3.34756
 Alpha virt. eigenvalues --    3.36669   3.37205   3.38316   3.39279   3.40125
 Alpha virt. eigenvalues --    3.40728   3.40818   3.42364   3.44325   3.46068
 Alpha virt. eigenvalues --    3.47745   3.48580   3.49545   3.50390   3.50993
 Alpha virt. eigenvalues --    3.52151   3.53224   3.55872   3.56363   3.56844
 Alpha virt. eigenvalues --    3.60091   3.60771   3.61581   3.62991   3.64878
 Alpha virt. eigenvalues --    3.65965   3.67729   3.69505   3.70166   3.72884
 Alpha virt. eigenvalues --    3.74318   3.75623   3.76995   3.77781   3.79380
 Alpha virt. eigenvalues --    3.83850   3.86037   3.87563   3.87991   3.90540
 Alpha virt. eigenvalues --    3.90945   3.92000   3.94348   3.95127   3.98822
 Alpha virt. eigenvalues --    4.02253   4.03202   4.07433   4.09136   4.09699
 Alpha virt. eigenvalues --    4.12337   4.14303   4.15956   4.19269   4.20762
 Alpha virt. eigenvalues --    4.21374   4.22870   4.24091   4.25402   4.27309
 Alpha virt. eigenvalues --    4.29016   4.29476   4.31636   4.32784   4.34328
 Alpha virt. eigenvalues --    4.36576   4.39484   4.41076   4.42274   4.42835
 Alpha virt. eigenvalues --    4.44400   4.47924   4.50140   4.51932   4.57408
 Alpha virt. eigenvalues --    4.60351   4.63621   4.67023   4.70143   4.72058
 Alpha virt. eigenvalues --    4.76022   4.80822   4.85106   4.89056   4.93960
 Alpha virt. eigenvalues --    4.95413   4.98073   5.00186   5.06256   5.12767
 Alpha virt. eigenvalues --    5.14027   5.19799   5.20708   5.23819   5.26837
 Alpha virt. eigenvalues --    5.27952   5.34706   5.36244   5.38840   5.45431
 Alpha virt. eigenvalues --    5.49715   5.53865   5.56671   5.57677   5.66516
 Alpha virt. eigenvalues --    5.76610   5.78106   5.95015   5.99062   6.10531
 Alpha virt. eigenvalues --    6.32796   6.38755   6.40281   6.48488   6.86483
 Alpha virt. eigenvalues --    6.94762   7.07560  22.14802  22.43447  22.47086
 Alpha virt. eigenvalues --   22.49991  22.55067  22.64097  22.70635  22.83828
 Alpha virt. eigenvalues --   22.88517  22.89610  23.35791  32.74920  43.88902
          Condensed to atoms (all electrons):
               1          2          3          4          5          6
     1  C    5.321619   0.388877   0.029070  -0.097878   0.039651   0.266327
     2  C    0.388877   5.075165   0.435743   0.006222  -0.091745   0.009103
     3  C    0.029070   0.435743   4.942126   0.463894   0.007116  -0.102418
     4  C   -0.097878   0.006222   0.463894   4.966043   0.402875   0.023240
     5  C    0.039651  -0.091745   0.007116   0.402875   5.151101   0.373998
     6  C    0.266327   0.009103  -0.102418   0.023240   0.373998   5.288310
     7  H   -0.067717   0.434287  -0.059112   0.012424  -0.004706   0.026185
     8  H    0.012465  -0.056639   0.430963  -0.052571   0.011789  -0.002707
     9  H   -0.001582   0.009833  -0.050775   0.421369  -0.048284   0.011124
    10  H    0.009833  -0.000991   0.008954  -0.043996   0.436476  -0.065294
    11  N   -0.087961   0.008058   0.000129   0.008526  -0.071447   0.317716
    12  C    0.007710  -0.000291   0.000266  -0.001511   0.003962  -0.086064
    13  H   -0.004063   0.000209   0.000007  -0.001638   0.003005  -0.011250
    14  H    0.000644  -0.000075   0.000013   0.000101   0.000762   0.009598
    15  H    0.003583   0.000039  -0.000246   0.000843  -0.009472  -0.000516
    16  C    0.017825   0.001085  -0.000075   0.001137  -0.015045  -0.065408
    17  H   -0.001934   0.000238  -0.000133  -0.001058   0.003939  -0.007499
    18  H   -0.001266  -0.000223   0.000009   0.000073  -0.000143   0.011825
    19  H    0.002141   0.002032  -0.000191   0.000096   0.001046  -0.013021
    20  C    0.318891  -0.067084   0.019122  -0.008756   0.023336  -0.199698
    21  H   -0.065279   0.000584   0.000851   0.000384  -0.001059   0.013001
    22  H   -0.022390   0.009540  -0.001633   0.000918  -0.001723  -0.008823
    23  C   -0.049827  -0.010115   0.001106  -0.001239   0.001486  -0.014468
    24  H    0.007727  -0.000218  -0.000053   0.000005  -0.000033   0.001402
    25  H   -0.008377   0.004722  -0.000820   0.000551  -0.000769   0.014656
    26  C    0.004130   0.000622  -0.000048   0.000141   0.001166   0.003233
    27  H    0.004728   0.000269  -0.000062   0.000190  -0.000170   0.001084
    28  O    0.007341  -0.000129   0.000000   0.000011  -0.000075   0.002208
               7          8          9         10         11         12
     1  C   -0.067717   0.012465  -0.001582   0.009833  -0.087961   0.007710
     2  C    0.434287  -0.056639   0.009833  -0.000991   0.008058  -0.000291
     3  C   -0.059112   0.430963  -0.050775   0.008954   0.000129   0.000266
     4  C    0.012424  -0.052571   0.421369  -0.043996   0.008526  -0.001511
     5  C   -0.004706   0.011789  -0.048284   0.436476  -0.071447   0.003962
     6  C    0.026185  -0.002707   0.011124  -0.065294   0.317716  -0.086064
     7  H    0.579973  -0.007557  -0.000360   0.000053  -0.000213   0.000042
     8  H   -0.007557   0.566673  -0.007049  -0.000291   0.000041  -0.000003
     9  H   -0.000360  -0.007049   0.566246  -0.006744  -0.000327  -0.000024
    10  H    0.000053  -0.000291  -0.006744   0.559988  -0.006254   0.003367
    11  N   -0.000213   0.000041  -0.000327  -0.006254   6.708622   0.288685
    12  C    0.000042  -0.000003  -0.000024   0.003367   0.288685   4.936222
    13  H   -0.000001   0.000001   0.000074   0.004216  -0.035551   0.404828
    14  H   -0.000001   0.000000  -0.000005  -0.000035  -0.050145   0.410282
    15  H    0.000004   0.000000  -0.000008  -0.002993  -0.040641   0.414468
    16  C    0.000077  -0.000010   0.000012  -0.000774   0.235768  -0.063994
    17  H   -0.000004   0.000000   0.000028   0.000564  -0.028963  -0.009246
    18  H   -0.000002   0.000000  -0.000002  -0.000051  -0.047046  -0.007009
    19  H    0.000019  -0.000001   0.000001   0.000032  -0.036340   0.009893
    20  C   -0.020982  -0.000423   0.000110  -0.000030  -0.019369  -0.001389
    21  H    0.007994  -0.000124  -0.000003   0.000015  -0.000084   0.000023
    22  H    0.001148   0.000008  -0.000003  -0.000015  -0.005373  -0.000216
    23  C    0.000232   0.000042  -0.000006   0.000155  -0.015638  -0.000132
    24  H   -0.000104  -0.000001   0.000000  -0.000001   0.003132  -0.000067
    25  H    0.000597   0.000007  -0.000001   0.000004  -0.001599  -0.000402
    26  C    0.000166   0.000002   0.000003  -0.000039   0.065954  -0.002447
    27  H    0.000022   0.000000   0.000000  -0.000074  -0.007924  -0.000460
    28  O    0.000011   0.000000   0.000000  -0.000004  -0.018947  -0.000215
              13         14         15         16         17         18
     1  C   -0.004063   0.000644   0.003583   0.017825  -0.001934  -0.001266
     2  C    0.000209  -0.000075   0.000039   0.001085   0.000238  -0.000223
     3  C    0.000007   0.000013  -0.000246  -0.000075  -0.000133   0.000009
     4  C   -0.001638   0.000101   0.000843   0.001137  -0.001058   0.000073
     5  C    0.003005   0.000762  -0.009472  -0.015045   0.003939  -0.000143
     6  C   -0.011250   0.009598  -0.000516  -0.065408  -0.007499   0.011825
     7  H   -0.000001  -0.000001   0.000004   0.000077  -0.000004  -0.000002
     8  H    0.000001   0.000000   0.000000  -0.000010   0.000000   0.000000
     9  H    0.000074  -0.000005  -0.000008   0.000012   0.000028  -0.000002
    10  H    0.004216  -0.000035  -0.002993  -0.000774   0.000564  -0.000051
    11  N   -0.035551  -0.050145  -0.040641   0.235768  -0.028963  -0.047046
    12  C    0.404828   0.410282   0.414468  -0.063994  -0.009246  -0.007009
    13  H    0.617619  -0.042884  -0.037776  -0.018137   0.017346  -0.003431
    14  H   -0.042884   0.552686  -0.017246   0.000325  -0.004274   0.005883
    15  H   -0.037776  -0.017246   0.544325   0.012590  -0.000801   0.000328
    16  C   -0.018137   0.000325   0.012590   4.961041   0.379903   0.418127
    17  H    0.017346  -0.004274  -0.000801   0.379903   0.613269  -0.039108
    18  H   -0.003431   0.005883   0.000328   0.418127  -0.039108   0.530602
    19  H   -0.000375   0.000335  -0.000399   0.416777  -0.027934  -0.017474
    20  C   -0.000245   0.000487  -0.000368  -0.010079  -0.000196   0.002334
    21  H   -0.000002   0.000001   0.000001   0.000342  -0.000019   0.000032
    22  H   -0.000038  -0.000005   0.000062   0.004428  -0.000274  -0.001208
    23  C   -0.000491   0.002394   0.000143  -0.004109  -0.000505   0.005432
    24  H    0.000019  -0.000069  -0.000031  -0.000248   0.000039  -0.000160
    25  H    0.000011  -0.000130   0.000322   0.000157  -0.000015  -0.000212
    26  C    0.002400  -0.006465  -0.001981  -0.020937   0.003860  -0.010218
    27  H    0.000011  -0.001508   0.000986   0.005923  -0.000104  -0.002133
    28  O   -0.000217   0.001925   0.000069   0.000104  -0.000065   0.009840
              19         20         21         22         23         24
     1  C    0.002141   0.318891  -0.065279  -0.022390  -0.049827   0.007727
     2  C    0.002032  -0.067084   0.000584   0.009540  -0.010115  -0.000218
     3  C   -0.000191   0.019122   0.000851  -0.001633   0.001106  -0.000053
     4  C    0.000096  -0.008756   0.000384   0.000918  -0.001239   0.000005
     5  C    0.001046   0.023336  -0.001059  -0.001723   0.001486  -0.000033
     6  C   -0.013021  -0.199698   0.013001  -0.008823  -0.014468   0.001402
     7  H    0.000019  -0.020982   0.007994   0.001148   0.000232  -0.000104
     8  H   -0.000001  -0.000423  -0.000124   0.000008   0.000042  -0.000001
     9  H    0.000001   0.000110  -0.000003  -0.000003  -0.000006   0.000000
    10  H    0.000032  -0.000030   0.000015  -0.000015   0.000155  -0.000001
    11  N   -0.036340  -0.019369  -0.000084  -0.005373  -0.015638   0.003132
    12  C    0.009893  -0.001389   0.000023  -0.000216  -0.000132  -0.000067
    13  H   -0.000375  -0.000245  -0.000002  -0.000038  -0.000491   0.000019
    14  H    0.000335   0.000487   0.000001  -0.000005   0.002394  -0.000069
    15  H   -0.000399  -0.000368   0.000001   0.000062   0.000143  -0.000031
    16  C    0.416777  -0.010079   0.000342   0.004428  -0.004109  -0.000248
    17  H   -0.027934  -0.000196  -0.000019  -0.000274  -0.000505   0.000039
    18  H   -0.017474   0.002334   0.000032  -0.001208   0.005432  -0.000160
    19  H    0.538188  -0.001127   0.000208   0.002033   0.001408  -0.000145
    20  C   -0.001127   5.153587   0.406711   0.402923   0.326669  -0.027674
    21  H    0.000208   0.406711   0.596133  -0.030504  -0.024726  -0.010484
    22  H    0.002033   0.402923  -0.030504   0.580833  -0.078688   0.003259
    23  C    0.001408   0.326669  -0.024726  -0.078688   5.338273   0.363105
    24  H   -0.000145  -0.027674  -0.010484   0.003259   0.363105   0.591379
    25  H    0.000049  -0.045151   0.000078   0.008325   0.357507  -0.028200
    26  C   -0.002767  -0.054985   0.004460  -0.003279   0.206738  -0.018598
    27  H   -0.000644  -0.007403  -0.000477   0.005063  -0.185609   0.008095
    28  O   -0.001505  -0.018884  -0.000015   0.022384  -0.121775   0.002223
              25         26         27         28
     1  C   -0.008377   0.004130   0.004728   0.007341
     2  C    0.004722   0.000622   0.000269  -0.000129
     3  C   -0.000820  -0.000048  -0.000062   0.000000
     4  C    0.000551   0.000141   0.000190   0.000011
     5  C   -0.000769   0.001166  -0.000170  -0.000075
     6  C    0.014656   0.003233   0.001084   0.002208
     7  H    0.000597   0.000166   0.000022   0.000011
     8  H    0.000007   0.000002   0.000000   0.000000
     9  H   -0.000001   0.000003   0.000000   0.000000
    10  H    0.000004  -0.000039  -0.000074  -0.000004
    11  N   -0.001599   0.065954  -0.007924  -0.018947
    12  C   -0.000402  -0.002447  -0.000460  -0.000215
    13  H    0.000011   0.002400   0.000011  -0.000217
    14  H   -0.000130  -0.006465  -0.001508   0.001925
    15  H    0.000322  -0.001981   0.000986   0.000069
    16  C    0.000157  -0.020937   0.005923   0.000104
    17  H   -0.000015   0.003860  -0.000104  -0.000065
    18  H   -0.000212  -0.010218  -0.002133   0.009840
    19  H    0.000049  -0.002767  -0.000644  -0.001505
    20  C   -0.045151  -0.054985  -0.007403  -0.018884
    21  H    0.000078   0.004460  -0.000477  -0.000015
    22  H    0.008325  -0.003279   0.005063   0.022384
    23  C    0.357507   0.206738  -0.185609  -0.121775
    24  H   -0.028200  -0.018598   0.008095   0.002223
    25  H    0.604866  -0.012007   0.009407   0.005830
    26  C   -0.012007   4.663527   0.438633   0.645353
    27  H    0.009407   0.438633   0.744037  -0.067605
    28  O    0.005830   0.645353  -0.067605   7.836168
 Mulliken charges:
               1
     1  C   -0.034288
     2  C   -0.159119
     3  C   -0.123804
     4  C   -0.100395
     5  C   -0.217042
     6  C    0.204157
     7  H    0.097525
     8  H    0.105387
     9  H    0.106374
    10  H    0.103928
    11  N   -0.162807
    12  C   -0.306281
    13  H    0.106354
    14  H    0.137403
    15  H    0.134715
    16  C   -0.256804
    17  H    0.102944
    18  H    0.145202
    19  H    0.127665
    20  C   -0.170328
    21  H    0.101956
    22  H    0.113249
    23  C   -0.097363
    24  H    0.105701
    25  H    0.090595
    26  C    0.093384
    27  H    0.055724
    28  O   -0.304033
 Sum of Mulliken charges =   0.00000
 Mulliken charges with hydrogens summed into heavy atoms:
               1
     1  C   -0.034288
     2  C   -0.061594
     3  C   -0.018418
     4  C    0.005980
     5  C   -0.113114
     6  C    0.204157
    11  N   -0.162807
    12  C    0.072191
    16  C    0.119007
    20  C    0.044877
    23  C    0.098933
    26  C    0.149108
    28  O   -0.304033
 Electronic spatial extent (au):  <R**2>=           2373.7152
 Charge=              0.0000 electrons
 Dipole moment (field-independent basis, Debye):
    X=             -1.9833    Y=              0.5265    Z=             -1.2397  Tot=              2.3974
 Quadrupole moment (field-independent basis, Debye-Ang):
   XX=            -87.9119   YY=            -71.9551   ZZ=            -79.6449
   XY=              1.4462   XZ=             -3.2674   YZ=             -0.1773
 Traceless Quadrupole moment (field-independent basis, Debye-Ang):
   XX=             -8.0746   YY=              7.8822   ZZ=              0.1924
   XY=              1.4462   XZ=             -3.2674   YZ=             -0.1773
 Octapole moment (field-independent basis, Debye-Ang**2):
  XXX=            -45.9844  YYY=             -2.7959  ZZZ=              0.9024  XYY=              4.5967
  XXY=              5.3516  XXZ=            -15.6400  XZZ=             16.1040  YZZ=              2.1686
  YYZ=             -1.5475  XYZ=              5.5706
 Hexadecapole moment (field-independent basis, Debye-Ang**3):
 XXXX=          -2004.9061 YYYY=           -966.2217 ZZZZ=           -321.1535 XXXY=             21.6406
 XXXZ=            -25.1979 YYYX=             -6.9708 YYYZ=             -6.9162 ZZZX=              3.5528
 ZZZY=             -0.7044 XXYY=           -459.7911 XXZZ=           -391.0706 YYZZ=           -225.3013
 XXYZ=              2.6468 YYXZ=             -3.6004 ZZXY=             -2.4995
 N-N= 8.113268662583D+02 E-N=-2.920980838134D+03  KE= 5.555193115655D+02
 Running external command "gaunbo6 R"
         input file       "/home/aloke/aloke/prakash/Gau-5717.EIn"
         output file      "/home/aloke/aloke/prakash/Gau-5717.EOu"
         message file     "/home/aloke/aloke/prakash/Gau-5717.EMs"
         fchk file        "/home/aloke/aloke/prakash/Gau-5717.EFC"
         mat. el file     "/home/aloke/aloke/prakash/Gau-5717.EUF"

 Writing Wrt12E file "/home/aloke/aloke/prakash/Gau-5717.EUF"
 Gaussian matrix elements                                         Version   1 NLab= 7 Len12L=8 Len4L=8
 Write GAUSSIAN SCALARS               from file   501 offset           0 to matrix element file.
 Write OVERLAP                        from file   514 offset           0 to matrix element file.
 Write CORE HAMILTONIAN ALPHA         from file   515 offset           0 to matrix element file.
 Write CORE HAMILTONIAN BETA          from file   515 offset      121771 to matrix element file.
 Write KINETIC ENERGY                 from file   516 offset           0 to matrix element file.
 Write ORTHOGONAL BASIS               from file   685 offset           0 to matrix element file.
 Write DIPOLE INTEGRALS               from file   518 offset           0 to matrix element file.
 Array DIP VEL INTEGRALS               on  file    572 does not exist.
 Array R X DEL INTEGRALS               on  file    572 does not exist.
 Write ALPHA ORBITAL ENERGIES         from file     0 offset           0 to matrix element file.
 Write ALPHA MO COEFFICIENTS          from file 10524 offset           0 to matrix element file.
 Write ALPHA DENSITY MATRIX           from file     0 offset           0 to matrix element file.
 Write ALPHA SCF DENSITY MATRIX       from file 10528 offset           0 to matrix element file.
 Write ALPHA FOCK MATRIX              from file 10536 offset           0 to matrix element file.
 No 2e integrals to process.
 Perform NBO analysis...

 *********************************** NBO 6.0 ***********************************
             N A T U R A L   A T O M I C   O R B I T A L   A N D
          N A T U R A L   B O N D   O R B I T A L   A N A L Y S I S
 ************************* Aloke Das Software (101058) *************************
  (c) Copyright 1996-2016 Board of Regents of the University of Wisconsin System
      on behalf of the Theoretical Chemistry Institute.  All rights reserved.

          Cite this program as:

          NBO 6.0.  E. D. Glendening, J. K. Badenhoop, A. E. Reed,
          J. E. Carpenter, J. A. Bohmann, C. M. Morales, C. R. Landis,
          and F. Weinhold (Theoretical Chemistry Institute, University
          of Wisconsin, Madison, WI, 2013); http://nbo6.chem.wisc.edu/

       /E2PERT / : Analyze NBO Fock matrix
                   Print threshold set to 0.1
       /AONBO  / : Checkpoint the AO to NBO transformation
                   NBOs sorted by occupancy

 Filename set to /home/aloke/aloke/prakash/Gau-5717

 Job title:  Energy Optimisation and Frequency calculation


 NATURAL POPULATIONS:  Natural atomic orbital occupancies

  NAO Atom No lang   Type(AO)    Occupancy      Energy
 -------------------------------------------------------
   1    C  1  s      Cor( 1s)     1.99999     -10.18460
   2    C  1  s      Val( 2s)     0.92230      -0.10239
   3    C  1  s      Ryd( 3s)     0.00074       1.44771
   4    C  1  s      Ryd( 4s)     0.00013       1.96706
   5    C  1  s      Ryd( 5s)     0.00000      19.56326
   6    C  1  px     Val( 2p)     1.04735      -0.01853
   7    C  1  px     Ryd( 3p)     0.00499       1.06848
   8    C  1  px     Ryd( 4p)     0.00034       2.26203
   9    C  1  py     Val( 2p)     1.04182      -0.00960
  10    C  1  py     Ryd( 3p)     0.00316       1.06031
  11    C  1  py     Ryd( 4p)     0.00021       2.16326
  12    C  1  pz     Val( 2p)     1.00162      -0.10267
  13    C  1  pz     Ryd( 3p)     0.00191       0.72703
  14    C  1  pz     Ryd( 4p)     0.00009       1.46564
  15    C  1  dxy    Ryd( 3d)     0.00107       2.91348
  16    C  1  dxy    Ryd( 4d)     0.00060       3.88940
  17    C  1  dxz    Ryd( 3d)     0.00032       1.56784
  18    C  1  dxz    Ryd( 4d)     0.00026       3.44245
  19    C  1  dyz    Ryd( 3d)     0.00026       1.68747
  20    C  1  dyz    Ryd( 4d)     0.00025       3.45365
  21    C  1  dx2y2  Ryd( 3d)     0.00117       2.79042
  22    C  1  dx2y2  Ryd( 4d)     0.00068       4.05479
  23    C  1  dz2    Ryd( 3d)     0.00095       3.09679
  24    C  1  dz2    Ryd( 4d)     0.00007       3.76237
  25    C  1  f(0)   Ryd( 4f)     0.00041       3.32140
  26    C  1  f(c1)  Ryd( 4f)     0.00041       3.36590
  27    C  1  f(s1)  Ryd( 4f)     0.00034       3.40566
  28    C  1  f(c2)  Ryd( 4f)     0.00004       3.38588
  29    C  1  f(s2)  Ryd( 4f)     0.00007       3.37681
  30    C  1  f(c3)  Ryd( 4f)     0.00013       3.83130
  31    C  1  f(s3)  Ryd( 4f)     0.00071       3.94788

  32    C  2  s      Cor( 1s)     1.99999     -10.17605
  33    C  2  s      Val( 2s)     0.97021      -0.12059
  34    C  2  s      Ryd( 3s)     0.00065       1.97462
  35    C  2  s      Ryd( 4s)     0.00005       2.61196
  36    C  2  s      Ryd( 5s)     0.00000      17.70756
  37    C  2  px     Val( 2p)     1.04444      -0.00972
  38    C  2  px     Ryd( 3p)     0.00263       0.97265
  39    C  2  px     Ryd( 4p)     0.00012       2.00407
  40    C  2  py     Val( 2p)     1.15813      -0.04346
  41    C  2  py     Ryd( 3p)     0.00437       1.19021
  42    C  2  py     Ryd( 4p)     0.00013       2.06557
  43    C  2  pz     Val( 2p)     1.00502      -0.10819
  44    C  2  pz     Ryd( 3p)     0.00134       0.72145
  45    C  2  pz     Ryd( 4p)     0.00020       1.26153
  46    C  2  dxy    Ryd( 3d)     0.00182       2.03197
  47    C  2  dxy    Ryd( 4d)     0.00027       3.97778
  48    C  2  dxz    Ryd( 3d)     0.00028       1.57294
  49    C  2  dxz    Ryd( 4d)     0.00016       3.23893
  50    C  2  dyz    Ryd( 3d)     0.00040       1.52711
  51    C  2  dyz    Ryd( 4d)     0.00006       2.97321
  52    C  2  dx2y2  Ryd( 3d)     0.00086       2.26975
  53    C  2  dx2y2  Ryd( 4d)     0.00079       3.95623
  54    C  2  dz2    Ryd( 3d)     0.00112       1.98588
  55    C  2  dz2    Ryd( 4d)     0.00002       3.46242
  56    C  2  f(0)   Ryd( 4f)     0.00043       3.23658
  57    C  2  f(c1)  Ryd( 4f)     0.00030       3.46124
  58    C  2  f(s1)  Ryd( 4f)     0.00037       3.30381
  59    C  2  f(c2)  Ryd( 4f)     0.00009       3.33407
  60    C  2  f(s2)  Ryd( 4f)     0.00005       3.33377
  61    C  2  f(c3)  Ryd( 4f)     0.00018       3.70154
  62    C  2  f(s3)  Ryd( 4f)     0.00063       3.98000

  63    C  3  s      Cor( 1s)     1.99999     -10.17410
  64    C  3  s      Val( 2s)     0.97415      -0.12397
  65    C  3  s      Ryd( 3s)     0.00064       1.58066
  66    C  3  s      Ryd( 4s)     0.00001       3.30409
  67    C  3  s      Ryd( 5s)     0.00000      19.30984
  68    C  3  px     Val( 2p)     1.14002      -0.03574
  69    C  3  px     Ryd( 3p)     0.00388       1.10081
  70    C  3  px     Ryd( 4p)     0.00016       2.04668
  71    C  3  py     Val( 2p)     1.07163      -0.01991
  72    C  3  py     Ryd( 3p)     0.00334       0.98109
  73    C  3  py     Ryd( 4p)     0.00014       1.86363
  74    C  3  pz     Val( 2p)     1.01182      -0.10587
  75    C  3  pz     Ryd( 3p)     0.00184       0.67615
  76    C  3  pz     Ryd( 4p)     0.00021       1.26654
  77    C  3  dxy    Ryd( 3d)     0.00109       2.07434
  78    C  3  dxy    Ryd( 4d)     0.00063       3.94274
  79    C  3  dxz    Ryd( 3d)     0.00036       1.53220
  80    C  3  dxz    Ryd( 4d)     0.00007       2.96441
  81    C  3  dyz    Ryd( 3d)     0.00031       1.57515
  82    C  3  dyz    Ryd( 4d)     0.00013       3.15367
  83    C  3  dx2y2  Ryd( 3d)     0.00135       2.09335
  84    C  3  dx2y2  Ryd( 4d)     0.00039       3.91409
  85    C  3  dz2    Ryd( 3d)     0.00114       1.84309
  86    C  3  dz2    Ryd( 4d)     0.00004       3.40829
  87    C  3  f(0)   Ryd( 4f)     0.00038       3.24062
  88    C  3  f(c1)  Ryd( 4f)     0.00038       3.38160
  89    C  3  f(s1)  Ryd( 4f)     0.00034       3.39691
  90    C  3  f(c2)  Ryd( 4f)     0.00008       3.33253
  91    C  3  f(s2)  Ryd( 4f)     0.00007       3.31420
  92    C  3  f(c3)  Ryd( 4f)     0.00016       3.64379
  93    C  3  f(s3)  Ryd( 4f)     0.00058       3.98656

  94    C  4  s      Cor( 1s)     1.99999     -10.17705
  95    C  4  s      Val( 2s)     0.97353      -0.12423
  96    C  4  s      Ryd( 3s)     0.00067       1.53706
  97    C  4  s      Ryd( 4s)     0.00002       2.85919
  98    C  4  s      Ryd( 5s)     0.00000      20.39678
  99    C  4  px     Val( 2p)     1.12453      -0.03315
 100    C  4  px     Ryd( 3p)     0.00389       1.08467
 101    C  4  px     Ryd( 4p)     0.00015       1.98237
 102    C  4  py     Val( 2p)     1.07912      -0.02270
 103    C  4  py     Ryd( 3p)     0.00358       1.00185
 104    C  4  py     Ryd( 4p)     0.00012       1.86786
 105    C  4  pz     Val( 2p)     1.00567      -0.10790
 106    C  4  pz     Ryd( 3p)     0.00164       0.69308
 107    C  4  pz     Ryd( 4p)     0.00018       1.27112
 108    C  4  dxy    Ryd( 3d)     0.00093       2.11093
 109    C  4  dxy    Ryd( 4d)     0.00072       3.94410
 110    C  4  dxz    Ryd( 3d)     0.00031       1.56579
 111    C  4  dxz    Ryd( 4d)     0.00012       2.97614
 112    C  4  dyz    Ryd( 3d)     0.00035       1.58559
 113    C  4  dyz    Ryd( 4d)     0.00013       3.09741
 114    C  4  dx2y2  Ryd( 3d)     0.00145       2.10889
 115    C  4  dx2y2  Ryd( 4d)     0.00032       3.91167
 116    C  4  dz2    Ryd( 3d)     0.00112       1.85879
 117    C  4  dz2    Ryd( 4d)     0.00002       3.38984
 118    C  4  f(0)   Ryd( 4f)     0.00041       3.25827
 119    C  4  f(c1)  Ryd( 4f)     0.00034       3.36062
 120    C  4  f(s1)  Ryd( 4f)     0.00033       3.37793
 121    C  4  f(c2)  Ryd( 4f)     0.00005       3.34466
 122    C  4  f(s2)  Ryd( 4f)     0.00009       3.33301
 123    C  4  f(c3)  Ryd( 4f)     0.00017       3.66179
 124    C  4  f(s3)  Ryd( 4f)     0.00057       3.97377

 125    C  5  s      Cor( 1s)     1.99999     -10.17615
 126    C  5  s      Val( 2s)     0.97274      -0.12271
 127    C  5  s      Ryd( 3s)     0.00098       1.71169
 128    C  5  s      Ryd( 4s)     0.00008       1.54172
 129    C  5  s      Ryd( 5s)     0.00000      20.61064
 130    C  5  px     Val( 2p)     1.05365      -0.01785
 131    C  5  px     Ryd( 3p)     0.00219       0.94780
 132    C  5  px     Ryd( 4p)     0.00017       1.99288
 133    C  5  py     Val( 2p)     1.16025      -0.04515
 134    C  5  py     Ryd( 3p)     0.00353       1.16485
 135    C  5  py     Ryd( 4p)     0.00029       1.94313
 136    C  5  pz     Val( 2p)     1.03594      -0.11194
 137    C  5  pz     Ryd( 3p)     0.00199       0.69347
 138    C  5  pz     Ryd( 4p)     0.00021       1.30641
 139    C  5  dxy    Ryd( 3d)     0.00199       2.08290
 140    C  5  dxy    Ryd( 4d)     0.00023       3.95583
 141    C  5  dxz    Ryd( 3d)     0.00027       1.58902
 142    C  5  dxz    Ryd( 4d)     0.00018       3.27476
 143    C  5  dyz    Ryd( 3d)     0.00043       1.57790
 144    C  5  dyz    Ryd( 4d)     0.00007       2.99676
 145    C  5  dx2y2  Ryd( 3d)     0.00082       2.30127
 146    C  5  dx2y2  Ryd( 4d)     0.00072       3.92702
 147    C  5  dz2    Ryd( 3d)     0.00124       1.96677
 148    C  5  dz2    Ryd( 4d)     0.00002       3.45346
 149    C  5  f(0)   Ryd( 4f)     0.00045       3.25022
 150    C  5  f(c1)  Ryd( 4f)     0.00032       3.45423
 151    C  5  f(s1)  Ryd( 4f)     0.00038       3.30280
 152    C  5  f(c2)  Ryd( 4f)     0.00010       3.33689
 153    C  5  f(s2)  Ryd( 4f)     0.00005       3.33620
 154    C  5  f(c3)  Ryd( 4f)     0.00018       3.70619
 155    C  5  f(s3)  Ryd( 4f)     0.00062       3.98991

 156    C  6  s      Cor( 1s)     1.99999     -10.21107
 157    C  6  s      Val( 2s)     0.87424      -0.08967
 158    C  6  s      Ryd( 3s)     0.00113       1.34861
 159    C  6  s      Ryd( 4s)     0.00016       1.79522
 160    C  6  s      Ryd( 5s)     0.00000      20.69166
 161    C  6  px     Val( 2p)     0.92673       0.00022
 162    C  6  px     Ryd( 3p)     0.00421       1.10327
 163    C  6  px     Ryd( 4p)     0.00056       2.01092
 164    C  6  py     Val( 2p)     1.02618      -0.01576
 165    C  6  py     Ryd( 3p)     0.00367       0.97955
 166    C  6  py     Ryd( 4p)     0.00036       2.08005
 167    C  6  pz     Val( 2p)     1.00734      -0.10940
 168    C  6  pz     Ryd( 3p)     0.00301       0.71346
 169    C  6  pz     Ryd( 4p)     0.00018       1.48387
 170    C  6  dxy    Ryd( 3d)     0.00103       3.14678
 171    C  6  dxy    Ryd( 4d)     0.00092       4.28250
 172    C  6  dxz    Ryd( 3d)     0.00043       1.72502
 173    C  6  dxz    Ryd( 4d)     0.00033       3.46076
 174    C  6  dyz    Ryd( 3d)     0.00026       1.66539
 175    C  6  dyz    Ryd( 4d)     0.00026       3.45046
 176    C  6  dx2y2  Ryd( 3d)     0.00116       2.87812
 177    C  6  dx2y2  Ryd( 4d)     0.00091       4.27232
 178    C  6  dz2    Ryd( 3d)     0.00059       2.83930
 179    C  6  dz2    Ryd( 4d)     0.00015       3.77827
 180    C  6  f(0)   Ryd( 4f)     0.00038       3.37625
 181    C  6  f(c1)  Ryd( 4f)     0.00027       3.45407
 182    C  6  f(s1)  Ryd( 4f)     0.00029       3.41831
 183    C  6  f(c2)  Ryd( 4f)     0.00007       3.41316
 184    C  6  f(s2)  Ryd( 4f)     0.00009       3.45085
 185    C  6  f(c3)  Ryd( 4f)     0.00012       3.88038
 186    C  6  f(s3)  Ryd( 4f)     0.00061       3.94180

 187    H  7  s      Val( 1s)     0.79446       0.04537
 188    H  7  s      Ryd( 2s)     0.00053       0.82502
 189    H  7  s      Ryd( 3s)     0.00009       1.88113
 190    H  7  px     Ryd( 2p)     0.00006       2.57560
 191    H  7  py     Ryd( 2p)     0.00084       2.82821
 192    H  7  pz     Ryd( 2p)     0.00015       2.13646

 193    H  8  s      Val( 1s)     0.78851       0.04902
 194    H  8  s      Ryd( 2s)     0.00030       0.66027
 195    H  8  s      Ryd( 3s)     0.00008       2.03370
 196    H  8  px     Ryd( 2p)     0.00063       2.78117
 197    H  8  py     Ryd( 2p)     0.00021       2.63003
 198    H  8  pz     Ryd( 2p)     0.00013       2.14382

 199    H  9  s      Val( 1s)     0.78937       0.04735
 200    H  9  s      Ryd( 2s)     0.00036       0.65686
 201    H  9  s      Ryd( 3s)     0.00009       2.02018
 202    H  9  px     Ryd( 2p)     0.00054       2.76215
 203    H  9  py     Ryd( 2p)     0.00025       2.64328
 204    H  9  pz     Ryd( 2p)     0.00015       2.15782

 205    H 10  s      Val( 1s)     0.78891       0.04589
 206    H 10  s      Ryd( 2s)     0.00094       0.72775
 207    H 10  s      Ryd( 3s)     0.00008       1.95453
 208    H 10  px     Ryd( 2p)     0.00007       2.58966
 209    H 10  py     Ryd( 2p)     0.00084       2.85601
 210    H 10  pz     Ryd( 2p)     0.00017       2.15309

 211    N 11  s      Cor( 1s)     1.99999     -14.33199
 212    N 11  s      Val( 2s)     1.25239      -0.41774
 213    N 11  s      Ryd( 3s)     0.00137       1.32341
 214    N 11  s      Ryd( 4s)     0.00004       6.07824
 215    N 11  s      Ryd( 5s)     0.00000      25.38735
 216    N 11  px     Val( 2p)     1.41309      -0.19476
 217    N 11  px     Ryd( 3p)     0.00542       0.79185
 218    N 11  px     Ryd( 4p)     0.00015       3.08323
 219    N 11  py     Val( 2p)     1.44562      -0.20257
 220    N 11  py     Ryd( 3p)     0.00653       0.90698
 221    N 11  py     Ryd( 4p)     0.00013       2.95425
 222    N 11  pz     Val( 2p)     1.28613      -0.18990
 223    N 11  pz     Ryd( 3p)     0.00370       0.78090
 224    N 11  pz     Ryd( 4p)     0.00009       2.87898
 225    N 11  dxy    Ryd( 3d)     0.00144       2.62205
 226    N 11  dxy    Ryd( 4d)     0.00015       5.29938
 227    N 11  dxz    Ryd( 3d)     0.00057       2.03392
 228    N 11  dxz    Ryd( 4d)     0.00018       4.96604
 229    N 11  dyz    Ryd( 3d)     0.00156       2.10724
 230    N 11  dyz    Ryd( 4d)     0.00012       5.07851
 231    N 11  dx2y2  Ryd( 3d)     0.00222       2.20304
 232    N 11  dx2y2  Ryd( 4d)     0.00014       5.03980
 233    N 11  dz2    Ryd( 3d)     0.00194       2.10220
 234    N 11  dz2    Ryd( 4d)     0.00013       5.15049
 235    N 11  f(0)   Ryd( 4f)     0.00009       4.78248
 236    N 11  f(c1)  Ryd( 4f)     0.00012       4.76986
 237    N 11  f(s1)  Ryd( 4f)     0.00006       4.81423
 238    N 11  f(c2)  Ryd( 4f)     0.00009       4.65555
 239    N 11  f(s2)  Ryd( 4f)     0.00012       4.63098
 240    N 11  f(c3)  Ryd( 4f)     0.00011       4.86118
 241    N 11  f(s3)  Ryd( 4f)     0.00016       4.69020

 242    C 12  s      Cor( 1s)     1.99999     -10.20026
 243    C 12  s      Val( 2s)     1.08200      -0.21632
 244    C 12  s      Ryd( 3s)     0.00086       1.33994
 245    C 12  s      Ryd( 4s)     0.00003       1.69544
 246    C 12  s      Ryd( 5s)     0.00000      21.92202
 247    C 12  px     Val( 2p)     1.20322      -0.11546
 248    C 12  px     Ryd( 3p)     0.00187       0.74686
 249    C 12  px     Ryd( 4p)     0.00019       1.59860
 250    C 12  py     Val( 2p)     1.00767      -0.08390
 251    C 12  py     Ryd( 3p)     0.00139       0.65746
 252    C 12  py     Ryd( 4p)     0.00023       1.53384
 253    C 12  pz     Val( 2p)     1.09613      -0.10174
 254    C 12  pz     Ryd( 3p)     0.00192       0.66498
 255    C 12  pz     Ryd( 4p)     0.00008       1.53085
 256    C 12  dxy    Ryd( 3d)     0.00087       2.06481
 257    C 12  dxy    Ryd( 4d)     0.00007       2.73387
 258    C 12  dxz    Ryd( 3d)     0.00067       2.00613
 259    C 12  dxz    Ryd( 4d)     0.00007       2.62618
 260    C 12  dyz    Ryd( 3d)     0.00087       2.79096
 261    C 12  dyz    Ryd( 4d)     0.00010       2.91759
 262    C 12  dx2y2  Ryd( 3d)     0.00123       2.35453
 263    C 12  dx2y2  Ryd( 4d)     0.00006       2.89961
 264    C 12  dz2    Ryd( 3d)     0.00116       2.02835
 265    C 12  dz2    Ryd( 4d)     0.00007       2.88680
 266    C 12  f(0)   Ryd( 4f)     0.00015       3.50511
 267    C 12  f(c1)  Ryd( 4f)     0.00014       3.55298
 268    C 12  f(s1)  Ryd( 4f)     0.00012       3.52603
 269    C 12  f(c2)  Ryd( 4f)     0.00016       3.41876
 270    C 12  f(s2)  Ryd( 4f)     0.00005       3.47524
 271    C 12  f(c3)  Ryd( 4f)     0.00022       3.65842
 272    C 12  f(s3)  Ryd( 4f)     0.00007       3.38874

 273    H 13  s      Val( 1s)     0.82868       0.00946
 274    H 13  s      Ryd( 2s)     0.00282       0.55377
 275    H 13  s      Ryd( 3s)     0.00005       2.05505
 276    H 13  px     Ryd( 2p)     0.00020       2.27719
 277    H 13  py     Ryd( 2p)     0.00054       2.68430
 278    H 13  pz     Ryd( 2p)     0.00016       2.23076

 279    H 14  s      Val( 1s)     0.79622       0.02586
 280    H 14  s      Ryd( 2s)     0.00079       0.70052
 281    H 14  s      Ryd( 3s)     0.00005       1.88642
 282    H 14  px     Ryd( 2p)     0.00081       2.72650
 283    H 14  py     Ryd( 2p)     0.00011       2.23138
 284    H 14  pz     Ryd( 2p)     0.00009       2.16501

 285    H 15  s      Val( 1s)     0.79492       0.02501
 286    H 15  s      Ryd( 2s)     0.00058       0.53281
 287    H 15  s      Ryd( 3s)     0.00004       2.01614
 288    H 15  px     Ryd( 2p)     0.00015       2.20378
 289    H 15  py     Ryd( 2p)     0.00011       2.21363
 290    H 15  pz     Ryd( 2p)     0.00068       2.76866

 291    C 16  s      Cor( 1s)     1.99999     -10.19268
 292    C 16  s      Val( 2s)     1.08740      -0.21099
 293    C 16  s      Ryd( 3s)     0.00105       1.28897
 294    C 16  s      Ryd( 4s)     0.00004       2.14130
 295    C 16  s      Ryd( 5s)     0.00000      21.61523
 296    C 16  px     Val( 2p)     1.17296      -0.10371
 297    C 16  px     Ryd( 3p)     0.00172       0.70269
 298    C 16  px     Ryd( 4p)     0.00011       1.55450
 299    C 16  py     Val( 2p)     1.19369      -0.10479
 300    C 16  py     Ryd( 3p)     0.00206       0.70321
 301    C 16  py     Ryd( 4p)     0.00021       1.61638
 302    C 16  pz     Val( 2p)     0.93054      -0.07068
 303    C 16  pz     Ryd( 3p)     0.00114       0.62747
 304    C 16  pz     Ryd( 4p)     0.00033       1.53838
 305    C 16  dxy    Ryd( 3d)     0.00094       1.96343
 306    C 16  dxy    Ryd( 4d)     0.00007       2.73143
 307    C 16  dxz    Ryd( 3d)     0.00064       2.32610
 308    C 16  dxz    Ryd( 4d)     0.00007       2.74198
 309    C 16  dyz    Ryd( 3d)     0.00122       2.06417
 310    C 16  dyz    Ryd( 4d)     0.00011       3.03209
 311    C 16  dx2y2  Ryd( 3d)     0.00132       2.03300
 312    C 16  dx2y2  Ryd( 4d)     0.00003       2.91500
 313    C 16  dz2    Ryd( 3d)     0.00078       2.61971
 314    C 16  dz2    Ryd( 4d)     0.00012       2.95128
 315    C 16  f(0)   Ryd( 4f)     0.00018       3.64712
 316    C 16  f(c1)  Ryd( 4f)     0.00019       3.62194
 317    C 16  f(s1)  Ryd( 4f)     0.00007       3.45741
 318    C 16  f(c2)  Ryd( 4f)     0.00017       3.55527
 319    C 16  f(s2)  Ryd( 4f)     0.00005       3.51346
 320    C 16  f(c3)  Ryd( 4f)     0.00021       3.51830
 321    C 16  f(s3)  Ryd( 4f)     0.00006       3.29234

 322    H 17  s      Val( 1s)     0.82667       0.01741
 323    H 17  s      Ryd( 2s)     0.00265       0.58704
 324    H 17  s      Ryd( 3s)     0.00004       1.98890
 325    H 17  px     Ryd( 2p)     0.00021       2.28016
 326    H 17  py     Ryd( 2p)     0.00045       2.55517
 327    H 17  pz     Ryd( 2p)     0.00024       2.39313

 328    H 18  s      Val( 1s)     0.78586       0.04329
 329    H 18  s      Ryd( 2s)     0.00094       0.67650
 330    H 18  s      Ryd( 3s)     0.00004       1.92014
 331    H 18  px     Ryd( 2p)     0.00090       2.77049
 332    H 18  py     Ryd( 2p)     0.00006       2.14475
 333    H 18  pz     Ryd( 2p)     0.00010       2.22743

 334    H 19  s      Val( 1s)     0.79337       0.03782
 335    H 19  s      Ryd( 2s)     0.00046       0.78579
 336    H 19  s      Ryd( 3s)     0.00005       1.87740
 337    H 19  px     Ryd( 2p)     0.00010       2.18714
 338    H 19  py     Ryd( 2p)     0.00052       2.55947
 339    H 19  pz     Ryd( 2p)     0.00036       2.57074

 340    C 20  s      Cor( 1s)     1.99999     -10.18069
 341    C 20  s      Val( 2s)     1.04642      -0.19230
 342    C 20  s      Ryd( 3s)     0.00078       1.65567
 343    C 20  s      Ryd( 4s)     0.00004       2.27611
 344    C 20  s      Ryd( 5s)     0.00000      20.79737
 345    C 20  px     Val( 2p)     1.06684      -0.07058
 346    C 20  px     Ryd( 3p)     0.00277       0.82410
 347    C 20  px     Ryd( 4p)     0.00020       1.69653
 348    C 20  py     Val( 2p)     1.16034      -0.09157
 349    C 20  py     Ryd( 3p)     0.00209       0.91674
 350    C 20  py     Ryd( 4p)     0.00030       1.81026
 351    C 20  pz     Val( 2p)     1.11160      -0.08740
 352    C 20  pz     Ryd( 3p)     0.00083       0.68405
 353    C 20  pz     Ryd( 4p)     0.00015       1.54396
 354    C 20  dxy    Ryd( 3d)     0.00119       2.38927
 355    C 20  dxy    Ryd( 4d)     0.00014       3.53624
 356    C 20  dxz    Ryd( 3d)     0.00109       2.13342
 357    C 20  dxz    Ryd( 4d)     0.00011       3.60782
 358    C 20  dyz    Ryd( 3d)     0.00029       1.81968
 359    C 20  dyz    Ryd( 4d)     0.00013       2.93186
 360    C 20  dx2y2  Ryd( 3d)     0.00050       2.18795
 361    C 20  dx2y2  Ryd( 4d)     0.00033       3.41784
 362    C 20  dz2    Ryd( 3d)     0.00095       2.13120
 363    C 20  dz2    Ryd( 4d)     0.00017       3.45539
 364    C 20  f(0)   Ryd( 4f)     0.00001       3.44197
 365    C 20  f(c1)  Ryd( 4f)     0.00042       3.82037
 366    C 20  f(s1)  Ryd( 4f)     0.00006       3.49277
 367    C 20  f(c2)  Ryd( 4f)     0.00006       3.43614
 368    C 20  f(s2)  Ryd( 4f)     0.00003       3.54366
 369    C 20  f(c3)  Ryd( 4f)     0.00014       3.74506
 370    C 20  f(s3)  Ryd( 4f)     0.00022       3.56291

 371    H 21  s      Val( 1s)     0.78945       0.03596
 372    H 21  s      Ryd( 2s)     0.00057       0.86459
 373    H 21  s      Ryd( 3s)     0.00003       1.81746
 374    H 21  px     Ryd( 2p)     0.00016       2.43234
 375    H 21  py     Ryd( 2p)     0.00088       2.84445
 376    H 21  pz     Ryd( 2p)     0.00011       2.28931

 377    H 22  s      Val( 1s)     0.77469       0.04443
 378    H 22  s      Ryd( 2s)     0.00178       0.73577
 379    H 22  s      Ryd( 3s)     0.00003       2.01124
 380    H 22  px     Ryd( 2p)     0.00036       2.55271
 381    H 22  py     Ryd( 2p)     0.00012       2.32797
 382    H 22  pz     Ryd( 2p)     0.00062       2.80051

 383    C 23  s      Cor( 1s)     1.99999     -10.17858
 384    C 23  s      Val( 2s)     1.09028      -0.22032
 385    C 23  s      Ryd( 3s)     0.00084       1.12856
 386    C 23  s      Ryd( 4s)     0.00002       3.69180
 387    C 23  s      Ryd( 5s)     0.00001      19.47123
 388    C 23  px     Val( 2p)     1.11037      -0.09243
 389    C 23  px     Ryd( 3p)     0.00219       0.82232
 390    C 23  px     Ryd( 4p)     0.00010       1.57152
 391    C 23  py     Val( 2p)     1.15301      -0.10178
 392    C 23  py     Ryd( 3p)     0.00096       0.81412
 393    C 23  py     Ryd( 4p)     0.00032       1.62538
 394    C 23  pz     Val( 2p)     1.12220      -0.08988
 395    C 23  pz     Ryd( 3p)     0.00166       0.78151
 396    C 23  pz     Ryd( 4p)     0.00019       1.52051
 397    C 23  dxy    Ryd( 3d)     0.00196       1.95669
 398    C 23  dxy    Ryd( 4d)     0.00010       3.70758
 399    C 23  dxz    Ryd( 3d)     0.00131       2.02116
 400    C 23  dxz    Ryd( 4d)     0.00015       3.69391
 401    C 23  dyz    Ryd( 3d)     0.00022       1.66745
 402    C 23  dyz    Ryd( 4d)     0.00009       3.02644
 403    C 23  dx2y2  Ryd( 3d)     0.00034       1.70881
 404    C 23  dx2y2  Ryd( 4d)     0.00008       3.11420
 405    C 23  dz2    Ryd( 3d)     0.00151       1.86107
 406    C 23  dz2    Ryd( 4d)     0.00016       3.46341
 407    C 23  f(0)   Ryd( 4f)     0.00002       3.43711
 408    C 23  f(c1)  Ryd( 4f)     0.00063       3.72319
 409    C 23  f(s1)  Ryd( 4f)     0.00005       3.43830
 410    C 23  f(c2)  Ryd( 4f)     0.00006       3.38029
 411    C 23  f(s2)  Ryd( 4f)     0.00006       3.46572
 412    C 23  f(c3)  Ryd( 4f)     0.00032       3.68010
 413    C 23  f(s3)  Ryd( 4f)     0.00006       3.38304

 414    H 24  s      Val( 1s)     0.76883       0.02315
 415    H 24  s      Ryd( 2s)     0.00061       0.69791
 416    H 24  s      Ryd( 3s)     0.00003       1.90365
 417    H 24  px     Ryd( 2p)     0.00029       2.46633
 418    H 24  py     Ryd( 2p)     0.00064       2.72294
 419    H 24  pz     Ryd( 2p)     0.00009       2.30622

 420    H 25  s      Val( 1s)     0.79106       0.02595
 421    H 25  s      Ryd( 2s)     0.00089       0.54951
 422    H 25  s      Ryd( 3s)     0.00004       2.09742
 423    H 25  px     Ryd( 2p)     0.00031       2.46686
 424    H 25  py     Ryd( 2p)     0.00007       2.27824
 425    H 25  pz     Ryd( 2p)     0.00065       2.75725

 426    C 26  s      Cor( 1s)     1.99999     -10.25194
 427    C 26  s      Val( 2s)     0.95740      -0.17025
 428    C 26  s      Ryd( 3s)     0.00953       1.23266
 429    C 26  s      Ryd( 4s)     0.00009       1.88814
 430    C 26  s      Ryd( 5s)     0.00001      21.87043
 431    C 26  px     Val( 2p)     0.78725      -0.04280
 432    C 26  px     Ryd( 3p)     0.00716       0.99840
 433    C 26  px     Ryd( 4p)     0.00027       1.19907
 434    C 26  py     Val( 2p)     0.89625      -0.06844
 435    C 26  py     Ryd( 3p)     0.00149       1.08276
 436    C 26  py     Ryd( 4p)     0.00016       1.10668
 437    C 26  pz     Val( 2p)     0.87676      -0.02670
 438    C 26  pz     Ryd( 3p)     0.00755       1.13280
 439    C 26  pz     Ryd( 4p)     0.00020       1.21835
 440    C 26  dxy    Ryd( 3d)     0.00112       3.03928
 441    C 26  dxy    Ryd( 4d)     0.00023       2.36690
 442    C 26  dxz    Ryd( 3d)     0.00045       2.96367
 443    C 26  dxz    Ryd( 4d)     0.00042       2.36317
 444    C 26  dyz    Ryd( 3d)     0.00133       2.83311
 445    C 26  dyz    Ryd( 4d)     0.00020       2.29397
 446    C 26  dx2y2  Ryd( 3d)     0.00059       2.72422
 447    C 26  dx2y2  Ryd( 4d)     0.00010       2.21644
 448    C 26  dz2    Ryd( 3d)     0.00140       2.95772
 449    C 26  dz2    Ryd( 4d)     0.00029       2.20383
 450    C 26  f(0)   Ryd( 4f)     0.00006       3.41311
 451    C 26  f(c1)  Ryd( 4f)     0.00021       3.48600
 452    C 26  f(s1)  Ryd( 4f)     0.00022       3.50359
 453    C 26  f(c2)  Ryd( 4f)     0.00020       3.47016
 454    C 26  f(s2)  Ryd( 4f)     0.00010       3.47168
 455    C 26  f(c3)  Ryd( 4f)     0.00013       3.32548
 456    C 26  f(s3)  Ryd( 4f)     0.00015       3.37777

 457    H 27  s      Val( 1s)     0.89314      -0.01229
 458    H 27  s      Ryd( 2s)     0.00332       0.49214
 459    H 27  s      Ryd( 3s)     0.00013       2.19180
 460    H 27  px     Ryd( 2p)     0.00015       2.24613
 461    H 27  py     Ryd( 2p)     0.00049       2.46404
 462    H 27  pz     Ryd( 2p)     0.00059       2.61642

 463    O 28  s      Cor( 1s)     1.99999     -19.10995
 464    O 28  s      Val( 2s)     1.70103      -0.67224
 465    O 28  s      Ryd( 3s)     0.00055       1.51958
 466    O 28  s      Ryd( 4s)     0.00002       5.09978
 467    O 28  s      Ryd( 5s)     0.00000      41.21031
 468    O 28  px     Val( 2p)     1.56344      -0.26024
 469    O 28  px     Ryd( 3p)     0.00131       0.67579
 470    O 28  px     Ryd( 4p)     0.00010       3.27286
 471    O 28  py     Val( 2p)     1.67694      -0.25332
 472    O 28  py     Ryd( 3p)     0.00287       0.71354
 473    O 28  py     Ryd( 4p)     0.00002       3.07547
 474    O 28  pz     Val( 2p)     1.59444      -0.26697
 475    O 28  pz     Ryd( 3p)     0.00150       0.66636
 476    O 28  pz     Ryd( 4p)     0.00011       3.40169
 477    O 28  dxy    Ryd( 3d)     0.00174       1.75997
 478    O 28  dxy    Ryd( 4d)     0.00002       6.51983
 479    O 28  dxz    Ryd( 3d)     0.00714       2.06968
 480    O 28  dxz    Ryd( 4d)     0.00000       6.66206
 481    O 28  dyz    Ryd( 3d)     0.00258       1.81233
 482    O 28  dyz    Ryd( 4d)     0.00002       6.51218
 483    O 28  dx2y2  Ryd( 3d)     0.00216       1.74777
 484    O 28  dx2y2  Ryd( 4d)     0.00001       6.45045
 485    O 28  dz2    Ryd( 3d)     0.00488       1.94467
 486    O 28  dz2    Ryd( 4d)     0.00003       6.59629
 487    O 28  f(0)   Ryd( 4f)     0.00010       5.79389
 488    O 28  f(c1)  Ryd( 4f)     0.00011       5.99061
 489    O 28  f(s1)  Ryd( 4f)     0.00005       5.58915
 490    O 28  f(c2)  Ryd( 4f)     0.00009       5.69045
 491    O 28  f(s2)  Ryd( 4f)     0.00010       5.70279
 492    O 28  f(c3)  Ryd( 4f)     0.00002       5.38075
 493    O 28  f(s3)  Ryd( 4f)     0.00003       5.40442

     Population inversion found on atom  C  5
     Population inversion found on atom  C 26


 Summary of Natural Population Analysis:

                                     Natural Population
             Natural    ---------------------------------------------
  Atom No    Charge        Core      Valence    Rydberg      Total
 --------------------------------------------------------------------
    C  1   -0.03241      1.99999     4.01309    0.01933     6.03241
    C  2   -0.19513      1.99999     4.17779    0.01735     6.19513
    C  3   -0.21531      1.99999     4.19761    0.01770     6.21531
    C  4   -0.20053      1.99999     4.18285    0.01769     6.20053
    C  5   -0.24004      1.99999     4.22257    0.01747     6.24004
    C  6    0.14436      1.99999     3.83449    0.02117     5.85564
    H  7    0.20387      0.00000     0.79446    0.00168     0.79613
    H  8    0.21014      0.00000     0.78851    0.00134     0.78986
    H  9    0.20925      0.00000     0.78937    0.00138     0.79075
    H 10    0.20898      0.00000     0.78891    0.00211     0.79102
    N 11   -0.42384      1.99999     5.39723    0.02662     7.42384
    C 12   -0.40163      1.99999     4.38901    0.01263     6.40163
    H 13    0.16756      0.00000     0.82868    0.00376     0.83244
    H 14    0.20192      0.00000     0.79622    0.00185     0.79808
    H 15    0.20352      0.00000     0.79492    0.00157     0.79648
    C 16   -0.39745      1.99999     4.38460    0.01286     6.39745
    H 17    0.16976      0.00000     0.82667    0.00358     0.83024
    H 18    0.21210      0.00000     0.78586    0.00204     0.78790
    H 19    0.20515      0.00000     0.79337    0.00147     0.79485
    C 20   -0.39818      1.99999     4.38520    0.01299     6.39818
    H 21    0.20880      0.00000     0.78945    0.00175     0.79120
    H 22    0.22240      0.00000     0.77469    0.00291     0.77760
    C 23   -0.48926      1.99999     4.47587    0.01341     6.48926
    H 24    0.22952      0.00000     0.76883    0.00165     0.77048
    H 25    0.20698      0.00000     0.79106    0.00196     0.79302
    C 26    0.44872      1.99999     3.51766    0.03363     5.55128
    H 27    0.10217      0.00000     0.89314    0.00469     0.89783
    O 28   -0.56141      1.99999     6.53586    0.02556     8.56141
 ====================================================================
 * Total *  0.00000     25.99986    69.71798    0.28216    96.00000

                                 Natural Population
 ---------------------------------------------------------
   Core                      25.99986 ( 99.9994% of   26)
   Valence                   69.71798 ( 99.5971% of   70)
   Natural Minimal Basis     95.71784 ( 99.7061% of   96)
   Natural Rydberg Basis      0.28216 (  0.2939% of   96)
 ---------------------------------------------------------

    Atom No         Natural Electron Configuration
 ----------------------------------------------------------------------------
      C  1      [core]2s( 0.92)2p( 3.09)3p( 0.01)
      C  2      [core]2s( 0.97)2p( 3.21)3p( 0.01)
      C  3      [core]2s( 0.97)2p( 3.22)3p( 0.01)
      C  4      [core]2s( 0.97)2p( 3.21)3p( 0.01)
      C  5      [core]2s( 0.97)2p( 3.25)3p( 0.01)
      C  6      [core]2s( 0.87)2p( 2.96)3p( 0.01)
      H  7            1s( 0.79)
      H  8            1s( 0.79)
      H  9            1s( 0.79)
      H 10            1s( 0.79)
      N 11      [core]2s( 1.25)2p( 4.14)3p( 0.02)3d( 0.01)
      C 12      [core]2s( 1.08)2p( 3.31)3p( 0.01)
      H 13            1s( 0.83)
      H 14            1s( 0.80)
      H 15            1s( 0.79)
      C 16      [core]2s( 1.09)2p( 3.30)
      H 17            1s( 0.83)
      H 18            1s( 0.79)
      H 19            1s( 0.79)
      C 20      [core]2s( 1.05)2p( 3.34)3p( 0.01)
      H 21            1s( 0.79)
      H 22            1s( 0.77)
      C 23      [core]2s( 1.09)2p( 3.39)3d( 0.01)
      H 24            1s( 0.77)
      H 25            1s( 0.79)
      C 26      [core]2s( 0.96)2p( 2.56)3s( 0.01)3p( 0.02)
      H 27            1s( 0.89)
      O 28      [core]2s( 1.70)2p( 4.83)3p( 0.01)3d( 0.02)


 NATURAL BOND ORBITAL ANALYSIS:

                            Occupancies       Lewis Structure    Low   High
         Max    Occ     -------------------  -----------------   occ   occ
  Cycle  Ctr   Thresh    Lewis   non-Lewis     CR  BD  nC  LP    (L)   (NL)
 ============================================================================
    1     2     1.90    89.58878   6.41122     13  26   0   9     8      7
    2     2     1.87    89.99310   6.00690     13  27   0   8     7      7
    3     2     1.86    92.19985   3.80015     13  30   0   5     3      3
    4     2     1.85    92.19985   3.80015     13  30   0   5     3      3
    5     2     1.84    92.19985   3.80015     13  30   0   5     3      3
    6     2     1.79    92.16755   3.83245     13  29   0   6     3      3
    7     2     1.67    92.81600   3.18400     13  30   0   5     2      3
    8     2     1.66    94.12465   1.87535     13  32   0   3     0      3
    9     2     1.61    94.12465   1.87535     13  32   0   3     0      3
   10     2     1.41    94.12465   1.87535     13  32   0   3     0      3
   11     2     1.66    94.12465   1.87535     13  32   0   3     0      3
 ----------------------------------------------------------------------------

 Structure accepted: No low occupancy Lewis orbitals

 -------------------------------------------------------
   Core                     25.99986 ( 99.999% of  26)
   Valence Lewis            68.12480 ( 97.321% of  70)
  ==================      =============================
   Total Lewis              94.12465 ( 98.047% of  96)
  -----------------------------------------------------
   Valence non-Lewis         1.71799 (  1.790% of  96)
   Rydberg non-Lewis         0.15736 (  0.164% of  96)
  ==================      =============================
   Total non-Lewis           1.87535 (  1.953% of  96)
[...]
  153.  0.00036     0.64999  247.   RY ( 1) H  9
  154.  0.00035     2.99006  112.   RY ( 6) C  2
  155.  0.00035     3.35440   87.   RY ( 7) C  1
  156.  0.00034     3.12595  164.   RY ( 6) C  4
  157.  0.00034     2.78256  261.   RY ( 5) N 11
  158.  0.00033     3.02991  218.   RY ( 8) C  6
  159.  0.00033     2.93626  190.   RY ( 6) C  5
  160.  0.00033     2.04065  327.   RY ( 4) C 16
  161.  0.00033     1.65218  470.   RY ( 3) O 28
  162.  0.00031     3.01051  138.   RY ( 6) C  3
  163.  0.00030     0.65194  242.   RY ( 1) H  8
  164.  0.00030     3.66237  262.   RY ( 6) N 11
  165.  0.00028     2.03643  369.   RY ( 5) C 20
  166.  0.00028     2.00416  286.   RY ( 4) C 12
  167.  0.00027     3.04572  191.   RY ( 7) C  5
  168.  0.00027     1.81581  406.   RY ( 6) C 23
  169.  0.00026     1.80950  442.   RY ( 6) C 26
  170.  0.00025     2.00097  370.   RY ( 6) C 20
  171.  0.00025     2.58743   88.   RY ( 8) C  1
  172.  0.00022     2.40564  219.   RY ( 9) C  6
  173.  0.00020     1.48187  287.   RY ( 5) C 12
  174.  0.00019     2.83616   89.   RY ( 9) C  1
  175.  0.00019     2.10606  407.   RY ( 7) C 23
  176.  0.00018     3.20276  263.   RY ( 7) N 11
  177.  0.00017     1.45812  328.   RY ( 5) C 16
  178.  0.00016     2.46578  371.   RY ( 7) C 20
  179.  0.00016     2.19049  464.   RY ( 2) H 27
  180.  0.00015     3.56756  264.   RY ( 8) N 11
  181.  0.00014     2.38746  220.   RY (10) C  6
  182.  0.00014     2.12091  253.   RY ( 2) H 10
  183.  0.00014     1.12922  329.   RY ( 6) C 16
  184.  0.00014     2.56962   90.   RY (10) C  1
  185.  0.00014     2.44618  372.   RY ( 8) C 20
  186.  0.00014     2.11042  238.   RY ( 2) H  7
  187.  0.00013     2.12558  243.   RY ( 2) H  8
  188.  0.00013     2.11987  248.   RY ( 2) H  9
  189.  0.00013     1.97016   91.   RY (11) C  1
  190.  0.00012     2.25534  221.   RY (11) C  6
  191.  0.00013     2.21705  361.   RY ( 2) H 19
  192.  0.00012     2.08218  139.   RY ( 7) C  3
  193.  0.00012     2.41048  397.   RY ( 2) H 22
  194.  0.00012     2.25097  113.   RY ( 7) C  2
  195.  0.00012     2.41787  392.   RY ( 2) H 21
  196.  0.00011     2.01509  408.   RY ( 8) C 23
  197.  0.00011     2.29306  465.   RY ( 3) H 27
  198.  0.00011     1.58313  330.   RY ( 7) C 16
  199.  0.00011     1.82778  373.   RY ( 9) C 20
  200.  0.00011     2.11558  222.   RY (12) C  6
  201.  0.00011     1.40136  288.   RY ( 6) C 12
  202.  0.00011     2.39962  409.   RY ( 9) C 23
  203.  0.00011     2.37405  428.   RY ( 2) H 24
  204.  0.00011     2.66868  265.   RY ( 9) N 11
  205.  0.00010     1.66694  289.   RY ( 7) C 12
  206.  0.00010     2.15548  315.   RY ( 2) H 14
  207.  0.00010     2.40585  443.   RY ( 7) C 26
  208.  0.00010     1.45407  192.   RY ( 8) C  5
  209.  0.00010     2.86720  266.   RY (10) N 11
  210.  0.00010     2.31169  165.   RY ( 7) C  4
  211.  0.00010     2.41895  471.   RY ( 4) O 28
  212.  0.00009     2.11169  320.   RY ( 2) H 15
  213.  0.00009     2.23183  351.   RY ( 2) H 17
  214.  0.00009     2.20989  310.   RY ( 2) H 13
  215.  0.00009     2.13598  356.   RY ( 2) H 18
  216.  0.00009     1.87611  239.   RY ( 3) H  7
  217.  0.00009     2.01795  249.   RY ( 3) H  9
  218.  0.00009     1.96073  254.   RY ( 3) H 10
  219.  0.00009     2.36993  393.   RY ( 3) H 21
  220.  0.00009     2.33165  398.   RY ( 3) H 22
  221.  0.00008     2.64250  193.   RY ( 9) C  5
  222.  0.00008     2.02715  244.   RY ( 3) H  8
  223.  0.00008     2.35607  374.   RY (10) C 20
  224.  0.00008     2.34017  433.   RY ( 2) H 25
  225.  0.00008     2.29623  429.   RY ( 3) H 24
  226.  0.00008     2.13097  311.   RY ( 3) H 13
  227.  0.00008     2.10184  362.   RY ( 3) H 19
  228.  0.00007     1.68182  472.   RY ( 5) O 28
  229.  0.00007     2.16994  321.   RY ( 3) H 15
  230.  0.00007     3.20885   92.   RY (12) C  1
  231.  0.00007     2.25277  114.   RY ( 8) C  2
  232.  0.00007     2.56901  255.   RY ( 4) H 10
  233.  0.00007     2.80482  444.   RY ( 8) C 26
  234.  0.00007     2.39194  434.   RY ( 3) H 25
  235.  0.00006     3.07397  267.   RY (11) N 11
  236.  0.00006     2.02412  445.   RY ( 9) C 26
  237.  0.00006     2.57439  240.   RY ( 4) H  7
  238.  0.00006     2.14831  316.   RY ( 3) H 14
  239.  0.00006     3.82806  223.   RY (13) C  6
  240.  0.00006     2.13034  352.   RY ( 3) H 17
  241.  0.00006     2.12009  357.   RY ( 3) H 18
  242.  0.00006     1.71643  290.   RY ( 8) C 12
  243.  0.00006     2.09827  466.   RY ( 4) H 27
  244.  0.00005     2.67729   93.   RY (13) C  1
  245.  0.00005     1.67582  166.   RY ( 8) C  4
  246.  0.00005     2.55642  250.   RY ( 4) H  9
  247.  0.00005     1.59685  331.   RY ( 8) C 16
  248.  0.00005     2.59864  115.   RY ( 9) C  2
  249.  0.00005     2.11636  317.   RY ( 4) H 14
  250.  0.00005     2.19125  358.   RY ( 4) H 18
  251.  0.00005     2.26687  363.   RY ( 4) H 19
  252.  0.00005     2.55948  245.   RY ( 4) H  8
  253.  0.00005     2.29752  410.   RY (10) C 23
  254.  0.00005     1.73462  140.   RY ( 8) C  3
  255.  0.00005     2.98953  375.   RY (11) C 20
  256.  0.00004     2.59776  224.   RY (14) C  6
  257.  0.00004     2.36610  435.   RY ( 4) H 25
  258.  0.00004     2.62136   94.   RY (14) C  1
  259.  0.00004     1.83443  194.   RY (10) C  5
  260.  0.00004     2.20555  312.   RY ( 4) H 13
  261.  0.00004     2.79711  376.   RY (12) C 20
  262.  0.00004     2.51492  399.   RY ( 4) H 22
  263.  0.00004     3.12879  225.   RY (15) C  6
  264.  0.00004     1.67570  332.   RY ( 9) C 16
  265.  0.00004     2.19352  394.   RY ( 4) H 21
  266.  0.00003     2.23373  353.   RY ( 4) H 17
  267.  0.00003     1.95811  116.   RY (10) C  2
  268.  0.00003     4.05489  268.   RY (12) N 11
  269.  0.00003     2.19167  322.   RY ( 4) H 15
  270.  0.00003     2.37062  411.   RY (11) C 23
  271.  0.00003     2.21674  117.   RY (11) C  2
  272.  0.00003     3.30422  269.   RY (13) N 11
  273.  0.00003     2.43997  446.   RY (10) C 26
  274.  0.00003     2.23039  195.   RY (11) C  5
  275.  0.00002     2.48643  412.   RY (12) C 23
  276.  0.00003     2.35066  430.   RY ( 4) H 24
  277.  0.00003     2.01748  447.   RY (11) C 26
  278.  0.00003     2.16664  473.   RY ( 6) O 28
  279.  0.00002     1.35221  474.   RY ( 7) O 28
  280.  0.00002     3.20149   95.   RY (15) C  1
  281.  0.00002     4.47726  270.   RY (14) N 11
  282.  0.00002     2.09402  333.   RY (10) C 16
  283.  0.00002     2.91699  377.   RY (13) C 20
  284.  0.00002     2.65801  291.   RY ( 9) C 12
  285.  0.00002     3.14042   96.   RY (16) C  1
  286.  0.00002     2.33309  167.   RY ( 9) C  4
  287.  0.00002     3.23264  226.   RY (16) C  6
  288.  0.00002     2.08491  292.   RY (10) C 12
  289.  0.00002     2.02343  293.   RY (11) C 12
  290.  0.00002     2.66334  196.   RY (12) C  5
  291.  0.00002     3.66661  227.   RY (17) C  6
  292.  0.00002     2.21160  378.   RY (14) C 20
  293.  0.00002     2.37501  448.   RY (12) C 26
  294.  0.00001     2.60711   97.   RY (17) C  1
  295.  0.00001     2.31959  118.   RY (12) C  2
  296.  0.00001     2.36621  141.   RY ( 9) C  3
  297.  0.00001     2.88158  256.   RY ( 5) H 10
  298.  0.00001     2.91807  467.   RY ( 5) H 27
  299.  0.00001     3.36644  334.   RY (11) C 16
  300.  0.00001     2.70464  142.   RY (10) C  3
  301.  0.00001     2.68461  168.   RY (10) C  4
  302.  0.00001     2.28612  197.   RY (13) C  5
  303.  0.00001     2.85647  241.   RY ( 5) H  7
  304.  0.00001     2.24781  119.   RY (13) C  2
  305.  0.00001     3.42664  198.   RY (14) C  5
  306.  0.00001     4.33445  271.   RY (15) N 11
  307.  0.00001     2.19010  413.   RY (13) C 23
  308.  0.00001     2.98370   98.   RY (18) C  1
  309.  0.00001     2.80176  143.   RY (11) C  3
  310.  0.00001     2.34803  169.   RY (11) C  4
  311.  0.00001     2.48064   99.   RY (19) C  1
  312.  0.00001     2.55315  120.   RY (14) C  2
  313.  0.00001     1.65758  170.   RY (12) C  4
  314.  0.00001     3.36546  228.   RY (18) C  6
  315.  0.00001     2.88336  246.   RY ( 5) H  8
  316.  0.00001     2.89443  251.   RY ( 5) H  9
  317.  0.00001     2.85348  379.   RY (15) C 20
  318.  0.00001     4.52222  272.   RY (16) N 11
  319.  0.00001     1.83196  144.   RY (12) C  3
  320.  0.00000     3.70363  100.   RY (20) C  1
  321.  0.00000     3.79662  121.   RY (15) C  2
  322.  0.00000     3.43341  122.   RY (16) C  2
  323.  0.00001     3.48283  199.   RY (15) C  5
  324.  0.00001     3.60229  229.   RY (19) C  6
  325.  0.00001     5.42913  273.   RY (17) N 11
  326.  0.00001     1.96392  294.   RY (12) C 12
  327.  0.00001     2.68624  323.   RY ( 5) H 15
  328.  0.00001     2.39640  395.   RY ( 5) H 21
  329.  0.00001     2.44367  400.   RY ( 5) H 22
  330.  0.00001     2.01297  335.   RY (12) C 16
  331.  0.00001     2.61164  359.   RY ( 5) H 18
  332.  0.00000     3.34236  145.   RY (13) C  3
  333.  0.00000     2.81137  171.   RY (13) C  4
  334.  0.00000    15.79492  101.   RY (21) C  1
  335.  0.00000     3.76881  102.   RY (22) C  1
  336.  0.00000     5.20283  103.   RY (23) C  1
  337.  0.00000     3.21995  104.   RY (24) C  1
  338.  0.00000     3.47578  105.   RY (25) C  1
  339.  0.00000     4.70216  106.   RY (26) C  1
  340.  0.00000    13.71450  123.   RY (17) C  2
  341.  0.00000     2.85295  124.   RY (18) C  2
  342.  0.00000     3.13709  125.   RY (19) C  2
  343.  0.00000     3.40479  126.   RY (20) C  2
  344.  0.00000     4.51493  127.   RY (21) C  2
  345.  0.00000     4.33020  128.   RY (22) C  2
  346.  0.00000     5.04259  146.   RY (14) C  3
  347.  0.00000     4.23914  147.   RY (15) C  3
  348.  0.00000     3.54755  172.   RY (14) C  4
  349.  0.00000     3.65428  200.   RY (16) C  5
  350.  0.00000     4.49457  201.   RY (17) C  5
  351.  0.00000     3.46750  230.   RY (20) C  6
  352.  0.00000     2.23904  295.   RY (13) C 12
  353.  0.00000     2.58134  318.   RY ( 5) H 14
  354.  0.00001     2.49041  336.   RY (13) C 16
  355.  0.00001     2.60746  354.   RY ( 5) H 17
  356.  0.00001     2.32611  380.   RY (16) C 20
  357.  0.00001     2.89697  381.   RY (17) C 20
  358.  0.00001     3.36338  414.   RY (14) C 23
  359.  0.00001     2.37369  431.   RY ( 5) H 24
  360.  0.00001     2.49234  436.   RY ( 5) H 25
  361.  0.00001     2.61662  449.   RY (13) C 26
  362.  0.00001     2.08640  450.   RY (14) C 26
  363.  0.00000     3.18779  129.   RY (23) C  2
  364.  0.00000     3.06799  130.   RY (24) C  2
  365.  0.00000     3.18770  131.   RY (25) C  2
  366.  0.00000     3.12380  132.   RY (26) C  2
  367.  0.00000     3.43961  148.   RY (16) C  3
  368.  0.00000     5.69393  149.   RY (17) C  3
  369.  0.00000     2.28074  150.   RY (18) C  3
  370.  0.00000     8.64308  151.   RY (19) C  3
  371.  0.00000     5.73972  152.   RY (20) C  3
  372.  0.00000     2.65541  153.   RY (21) C  3
  373.  0.00000     3.29944  154.   RY (22) C  3
  374.  0.00000     3.38232  155.   RY (23) C  3
  375.  0.00000     4.25011  156.   RY (24) C  3
  376.  0.00000     3.32562  157.   RY (25) C  3
  377.  0.00000     2.61698  158.   RY (26) C  3
  378.  0.00000     3.13579  173.   RY (15) C  4
  379.  0.00000     3.61687  174.   RY (16) C  4
  380.  0.00000     3.74481  175.   RY (17) C  4
  381.  0.00000     2.23769  176.   RY (18) C  4
  382.  0.00000    10.13892  177.   RY (19) C  4
  383.  0.00000     3.30951  178.   RY (20) C  4
  384.  0.00000     3.15615  179.   RY (21) C  4
  385.  0.00000     3.27919  180.   RY (22) C  4
  386.  0.00000     7.25505  181.   RY (23) C  4
  387.  0.00000     3.57562  182.   RY (24) C  4
  388.  0.00000     6.18979  183.   RY (25) C  4
  389.  0.00000     2.50225  202.   RY (18) C  5
  390.  0.00000     2.55882  203.   RY (19) C  5
  391.  0.00000     4.05485  204.   RY (20) C  5
  392.  0.00000     3.17436  184.   RY (26) C  4
  393.  0.00000     8.29608  205.   RY (21) C  5
  394.  0.00000     3.51671  206.   RY (22) C  5
  395.  0.00000     3.28812  207.   RY (23) C  5
  396.  0.00000     4.15321  208.   RY (24) C  5
  397.  0.00000     5.42528  209.   RY (25) C  5
  398.  0.00000     7.99442  210.   RY (26) C  5
  399.  0.00000    17.79898  231.   RY (21) C  6
  400.  0.00000     5.19280  232.   RY (22) C  6
  401.  0.00000     3.56469  233.   RY (23) C  6
  402.  0.00000     3.45787  234.   RY (24) C  6
  403.  0.00000     3.34464  235.   RY (25) C  6
  404.  0.00000     3.05587  236.   RY (26) C  6
  405.  0.00000     4.74163  274.   RY (18) N 11
  406.  0.00000     4.20538  275.   RY (19) N 11
  407.  0.00000     4.57974  276.   RY (20) N 11
  408.  0.00000     2.69449  313.   RY ( 5) H 13
  409.  0.00000     2.97474  337.   RY (14) C 16
  410.  0.00000     2.57112  364.   RY ( 5) H 19
  411.  0.00000     2.52359  415.   RY (15) C 23
  412.  0.00000     2.72593  382.   RY (18) C 20
  413.  0.00000     2.30547  451.   RY (15) C 26
  414.  0.00000     3.37709  475.   RY ( 8) O 28
  415.  0.00000     2.62708  476.   RY ( 9) O 28
  416.  0.00000     4.71682  277.   RY (21) N 11
  417.  0.00000     4.39697  278.   RY (22) N 11
  418.  0.00000     2.85231  296.   RY (14) C 12
  419.  0.00000     2.87504  297.   RY (15) C 12
  420.  0.00000     5.46988  279.   RY (23) N 11
  421.  0.00000     4.49825  280.   RY (24) N 11
  422.  0.00000     7.86411  281.   RY (25) N 11
  423.  0.00000    20.83650  282.   RY (26) N 11
  424.  0.00000     3.34040  298.   RY (16) C 12
  425.  0.00000    18.35424  299.   RY (17) C 12
  426.  0.00000     3.58715  300.   RY (18) C 12
  427.  0.00000     5.46988  301.   RY (19) C 12
  428.  0.00000     2.84224  302.   RY (20) C 12
  429.  0.00000     2.36392  303.   RY (21) C 12
  430.  0.00000     2.76914  338.   RY (15) C 16
  431.  0.00000     3.38854  304.   RY (22) C 12
  432.  0.00000     3.61777  305.   RY (23) C 12
  433.  0.00000     3.11557  306.   RY (24) C 12
  434.  0.00000     2.83940  339.   RY (16) C 16
  435.  0.00000     2.83476  340.   RY (17) C 16
  436.  0.00000     3.56923  307.   RY (25) C 12
  437.  0.00000     3.60660  308.   RY (26) C 12
  438.  0.00000    17.49181  341.   RY (18) C 16
  439.  0.00000     3.63945  342.   RY (19) C 16
  440.  0.00000     2.78110  343.   RY (20) C 16
  441.  0.00000     3.96558  344.   RY (21) C 16
  442.  0.00000     3.75677  345.   RY (22) C 16
  443.  0.00000     3.37381  346.   RY (23) C 16
  444.  0.00000     5.71843  347.   RY (24) C 16
  445.  0.00000     3.69908  348.   RY (25) C 16
  446.  0.00000     3.09492  349.   RY (26) C 16
  447.  0.00000     3.27851  383.   RY (19) C 20
  448.  0.00000     3.19254  416.   RY (16) C 23
  449.  0.00000     3.91042  384.   RY (20) C 20
  450.  0.00000    18.76182  385.   RY (21) C 20
  451.  0.00000     3.42112  386.   RY (22) C 20
  452.  0.00000     3.54464  387.   RY (23) C 20
  453.  0.00000     3.49812  388.   RY (24) C 20
  454.  0.00000     4.78791  389.   RY (25) C 20
  455.  0.00000     3.44253  390.   RY (26) C 20
  456.  0.00000    11.22234  417.   RY (17) C 23
  457.  0.00000     4.34503  418.   RY (18) C 23
  458.  0.00000     4.05008  419.   RY (19) C 23
  459.  0.00000     2.82683  420.   RY (20) C 23
  460.  0.00000     3.30928  421.   RY (21) C 23
  461.  0.00000     4.12002  422.   RY (22) C 23
  462.  0.00000     4.35856  423.   RY (23) C 23
  463.  0.00000     4.67061  424.   RY (24) C 23
  464.  0.00000     5.94978  425.   RY (25) C 23
  465.  0.00000     3.36039  426.   RY (26) C 23
  466.  0.00000     2.48064  452.   RY (16) C 26
  467.  0.00000     2.98288  453.   RY (17) C 26
  468.  0.00000     2.77550  454.   RY (18) C 26
  469.  0.00000     2.95144  477.   RY (10) O 28
  470.  0.00000     3.06126  455.   RY (19) C 26
  471.  0.00000    16.96625  456.   RY (20) C 26
  472.  0.00000     3.63552  457.   RY (21) C 26
  473.  0.00000     2.88440  458.   RY (22) C 26
  474.  0.00000     2.62591  459.   RY (23) C 26
  475.  0.00000     4.57867  460.   RY (24) C 26
  476.  0.00000     5.68702  461.   RY (25) C 26
  477.  0.00000     3.13354  462.   RY (26) C 26
  478.  0.00000     4.90322  478.   RY (11) O 28
  479.  0.00000     3.34001  479.   RY (12) O 28
  480.  0.00000     3.17187  480.   RY (13) O 28
  481.  0.00000     7.71785  481.   RY (14) O 28
  482.  0.00000     7.04664  482.   RY (15) O 28
  483.  0.00000    14.41631  483.   RY (16) O 28
  484.  0.00000     6.87522  484.   RY (17) O 28
  485.  0.00000     6.57972  485.   RY (18) O 28
  486.  0.00000     6.08562  486.   RY (19) O 28
  487.  0.00000     6.40923  487.   RY (20) O 28
  488.  0.00000     6.80778  488.   RY (21) O 28
  489.  0.00000    19.31252  489.   RY (22) O 28
  490.  0.00000     8.57386  490.   RY (23) O 28
  491.  0.00000     6.60524  491.   RY (24) O 28
  492.  0.00000     6.04947  492.   RY (25) O 28
  493.  0.00000     7.50253  493.   RY (26) O 28

 Maximum scratch memory used by NBO was 2207538 words
 Maximum scratch memory used by G09NBO was 1585776 words

 Read Unf file /home/aloke/aloke/prakash/Gau-5717.EUF:
 Label Gaussian matrix elements                                         IVers= 1 NLab= 2 Version=AM64L-G09RevD.01
 Title Energy Optimisation and Frequency calculation                   
 NAtoms=    28 NBasis=   493 NBsUse=   493 ICharg=     0 Multip=     1 NE=    96 Len12L=8 Len4L=8
 Label GAUSSIAN SCALARS                                                 NI= 1 NR= 1 NTot=       1 LenBuf=    2000 N=    1000       1       1       1       1
 Label ALPHA ORBITAL ENERGIES                                           NI= 0 NR= 1 NTot=     493 LenBuf=    4000 N=     493       0       0       0       0
 Label ALPHA MO COEFFICIENTS                                            NI= 0 NR= 1 NTot=  243049 LenBuf=    4000 N=     493     493       0       0       0
 Store file  524 Len=  243049.
 Label NPA CHARGES                                                      NI= 0 NR= 1 NTot=      28 LenBuf=    4000 N=      28       0       0       0       0
 Recovered energy= -558.395956546     dipole=      0.000000000000      0.000000000000      0.000000000000
 1\1\GINC-CN031\SP\RB3LYP\def2TZVP\C11H15N1O1\ALOKE\11-Jul-2021\0\\# b
 3lyp/def2tzvp empiricaldispersion=gd3 pop=nbo6read pop=saveNBOs int=(g
 rid=ultrafine) scf=(tight,maxcycle=300)\\Energy Optimisation and Frequ
 ency calculation\\0,1\C,0,-0.743277,-0.899037,0.248774\C,0,-1.995895,-
 1.511092,0.237584\C,0,-3.163154,-0.794562,0.000084\C,0,-3.086911,0.569
 307,-0.24177\C,0,-1.851799,1.205508,-0.219021\C,0,-0.67888,0.492236,0.
 036655\H,0,-2.053241,-2.581777,0.396562\H,0,-4.119186,-1.302134,-0.009
 932\H,0,-3.983995,1.14287,-0.438678\H,0,-1.803359,2.27202,-0.391428\N,
 0,0.593484,1.133471,0.07333\C,0,0.764637,2.30031,-0.77724\H,0,0.259367
 ,3.199559,-0.394483\H,0,1.83015,2.526965,-0.846869\H,0,0.388223,2.0901
 98,-1.778033\C,0,1.11103,1.368271,1.421071\H,0,0.611945,2.225266,1.895
 775\H,0,2.183733,1.555695,1.372805\H,0,0.953366,0.493596,2.046385\C,0,
 0.496596,-1.748481,0.395683\H,0,0.182798,-2.785802,0.516002\H,0,1.0685
 04,-1.496724,1.291422\C,0,1.454319,-1.647156,-0.813124\H,0,2.010474,-2
 .585908,-0.905579\H,0,0.892979,-1.506338,-1.738407\C,0,2.500667,-0.564
 185,-0.666238\H,0,2.618906,0.120907,-1.528332\O,0,3.245118,-0.491176,0
 .283092\\Version=AM64L-G09RevD.01\State=1-A\HF=-558.3959565\RMSD=5.631
 e-09\Dipole=-0.7802916,0.2071363,-0.4877305\Quadrupole=-6.0032631,5.86
 02029,0.1430602,1.0752132,-2.4292541,-0.1318049\PG=C01 [X(C11H15N1O1)]
 \\@


 THERE IS AN OLD, OLD RECIPE IN MAINE FOR STEWING COOT. PLACE THE
 BIRD IN A KETTLE OF WATER WITH A RED BUILDING BRICK FREE OF MORTAR AND
 BLEMISHES. PARBOIL THE COOT AND BRICK TOGETHER FOR THREE HOURS.
 POUR OFF THE WATER, REFILL THE KETTLE, AND AGAIN PARBOIL FOR THREE HOURS.
 ONCE AGAIN POUR OFF THE WATER, FOR THE LAST TIME ADD FRESH WATER,
 AND LET THE COOT AND BRICK SIMMER TOGETHER OVERNIGHT. IN THE MORNING,
 THROW AWAY THE COOT AND EAT THE BRICK.
 Job cpu time:       0 days  0 hours 48 minutes  2.8 seconds.
 File lengths (MBytes):  RWF=     95 Int=      0 D2E=      0 Chk=     10 Scr=      1
 Normal termination of Gaussian 09 at Sun Jul 11 14:04:33 2021.
